      -----------------------------------------------------------      
     |                   =====================                   |     
     |                           x T B                           |     
     |                   =====================                   |     
     |                         S. Grimme                         |     
     |          Mulliken Center for Theoretical Chemistry        |     
     |                    University of Bonn                     |     
      -----------------------------------------------------------      

   * xtb version 6.4.1 (bd6e46d) compiled by 'conda@4901f00b25ba' on 2021-06-10

   xtb is free software: you can redistribute it and/or modify it under
   the terms of the GNU Lesser General Public License as published by
   the Free Software Foundation, either version 3 of the License, or
   (at your option) any later version.
   
   xtb is distributed in the hope that it will be useful,
   but WITHOUT ANY WARRANTY; without even the implied warranty of
   MERCHANTABILITY or FITNESS FOR A PARTICULAR PURPOSE.  See the
   GNU Lesser General Public License for more details.
   
   Cite this work as:
   * C. Bannwarth, E. Caldeweyher, S. Ehlert, A. Hansen, P. Pracht,
     J. Seibert, S. Spicher, S. Grimme, WIREs Comput. Mol. Sci., 2020, 11,
     e01493. DOI: 10.1002/wcms.1493
   
   for GFN2-xTB:
   * C. Bannwarth, S. Ehlert and S. Grimme., J. Chem. Theory Comput., 2019,
     15, 1652-1671. DOI: 10.1021/acs.jctc.8b01176
   for GFN1-xTB:
   * S. Grimme, C. Bannwarth, P. Shushkov, J. Chem. Theory Comput., 2017,
     13, 1989-2009. DOI: 10.1021/acs.jctc.7b00118
   for GFN0-xTB:
   * P. Pracht, E. Caldeweyher, S. Ehlert, S. Grimme, ChemRxiv, 2019, preprint.
     DOI: 10.26434/chemrxiv.8326202.v1
   for GFN-FF:
   * S. Spicher and S. Grimme, Angew. Chem. Int. Ed., 2020, 59, 15665-15673.
     DOI: 10.1002/anie.202004239
   
   for DFT-D4:
   * E. Caldeweyher, C. Bannwarth and S. Grimme, J. Chem. Phys., 2017,
     147, 034112. DOI: 10.1063/1.4993215
   * E. Caldeweyher, S. Ehlert, A. Hansen, H. Neugebauer, S. Spicher,
     C. Bannwarth and S. Grimme, J. Chem. Phys., 2019, 150, 154122.
     DOI: 10.1063/1.5090222
   * E. Caldeweyher, J.-M. Mewes, S. Ehlert and S. Grimme, Phys. Chem. Chem. Phys.
     2020, 22, 8499-8512. DOI: 10.1039/D0CP00502A
   
   for sTDA-xTB:
   * S. Grimme and C. Bannwarth, J. Chem. Phys., 2016, 145, 054103.
     DOI: 10.1063/1.4959605
   
   in the mass-spec context:
   * V. Asgeirsson, C. Bauer and S. Grimme, Chem. Sci., 2017, 8, 4879.
     DOI: 10.1039/c7sc00601b
   * J. Koopman and S. Grimme, ACS Omega 2019, 4, 12, 15120-15133.
     DOI: 10.1021/acsomega.9b02011
   
   for metadynamics refer to:
   * S. Grimme, J. Chem. Theory Comput., 2019, 155, 2847-2862
     DOI: 10.1021/acs.jctc.9b00143
   
   for SPH calculations refer to:
   * S. Spicher and S. Grimme, J. Chem. Theory Comput., 2021, 17, 1701-1714
     DOI: 10.1021/acs.jctc.0c01306
   
   with help from (in alphabetical order)
   P. Atkinson, C. Bannwarth, F. Bohle, G. Brandenburg, E. Caldeweyher
   M. Checinski, S. Dohm, S. Ehlert, S. Ehrlich, I. Gerasimov, J. Koopman
   C. Lavigne, S. Lehtola, F. März, M. Müller, F. Musil, H. Neugebauer
   J. Pisarek, C. Plett, P. Pracht, J. Seibert, P. Shushkov, S. Spicher
   M. Stahn, M. Steiner, T. Strunk, J. Stückrath, T. Rose, and J. Unsleber
   
 * started run on 2021/11/21 at 01:46:20.755     

           -------------------------------------------------
          |                Calculation Setup                |
           -------------------------------------------------

          program call               : /home/jeff/miniconda3/bin/xtb /home/jeff/chem/final-year-proejct/Cu+2_4_6_outenergy/input_structure.xyz --gfn 2 --parallel 1 --etemp 300 --chrg 0 --uhf 0 -I det_control.in
          coordinate file            : /home/jeff/chem/final-year-proejct/Cu+2_4_6_outenergy/input_structure.xyz
          omp threads                :                     1
          number of atoms            :                   232
          number of electrons        :                   808
          charge                     :                     0
          spin                       :                   0.0
          first test random number   :      0.80657923883243

   ID    Z sym.   atoms
    1   29 Cu     1, 37, 93, 128, 163, 198
    2    6 C      2-9, 11-15, 17-21, 23, 24, 38-45, 47-51, 53-57, 59, 60,
                  73-92, 94-101, 103-107, 109-113, 115, 116, 129-136,
                  138-142, 144-148, 150, 151, 164-171, 173-177, 179-183, 185,
                  186, 199-206, 208-212, 214-218, 220, 221
    3    7 N      10, 16, 22, 25, 46, 52, 58, 61, 102, 108, 114, 117, 137,
                  143, 149, 152, 172, 178, 184, 187, 207, 213, 219, 222
    4    1 H      26-36, 62-72, 118-127, 153-162, 188-197, 223-232

           -------------------------------------------------
          |                 G F N 2 - x T B                 |
           -------------------------------------------------

        Reference                      10.1021/acs.jctc.8b01176
      * Hamiltonian:
        H0-scaling (s, p, d)           1.850000    2.230000    2.230000
        zeta-weighting                 0.500000
      * Dispersion:
        s8                             2.700000
        a1                             0.520000
        a2                             5.000000
        s9                             5.000000
      * Repulsion:
        kExp                           1.500000    1.000000
        rExp                           1.000000
      * Coulomb:
        alpha                          2.000000
        third order                    shell-resolved
        anisotropic                    true
        a3                             3.000000
        a5                             4.000000
        cn-shift                       1.200000
        cn-exp                         4.000000
        max-rad                        5.000000


          ...................................................
          :                      SETUP                      :
          :.................................................:
          :  # basis functions                 778          :
          :  # atomic orbitals                 772          :
          :  # shells                          408          :
          :  # electrons                       808          :
          :  max. iterations                   250          :
          :  Hamiltonian                  GFN2-xTB          :
          :  restarted?                      false          :
          :  GBSA solvation                  false          :
          :  PC potential                    false          :
          :  electronic temp.          300.0000000     K    :
          :  accuracy                    1.0000000          :
          :  -> integral cutoff          0.2500000E+02      :
          :  -> integral neglect         0.1000000E-07      :
          :  -> SCF convergence          0.1000000E-05 Eh   :
          :  -> wf. convergence          0.1000000E-03 e    :
          :  Broyden damping             0.4000000          :
          ...................................................

 iter      E             dE          RMSdq      gap      omega  full diag
   1   -432.3482591 -0.432348E+03  0.587E+00    0.00       0.0  T
   2   -431.9690712  0.379188E+00  0.369E+00    0.01       1.0  T
   3   -251.4542249  0.180515E+03  0.114E+01    0.03       1.0  T
   4   -423.5905855 -0.172136E+03  0.263E+00    0.05       1.0  T
   5   -422.9434451  0.647140E+00  0.238E+00    0.02       1.0  T
   6   -428.4275862 -0.548414E+01  0.160E+00    0.06       1.0  T
   7   -430.1360358 -0.170845E+01  0.129E+00    0.14       1.0  T
   8   -431.7558597 -0.161982E+01  0.935E-01    0.04       1.0  T
   9   -431.8660799 -0.110220E+00  0.855E-01    0.08       1.0  T
  10   -431.6194622  0.246618E+00  0.952E-01    0.27       1.0  T
  11   -432.0479444 -0.428482E+00  0.662E-01    0.04       1.0  T
  12   -431.9642500  0.836944E-01  0.780E-01    0.02       1.0  T
  13   -431.7674076  0.196842E+00  0.857E-01    0.12       1.0  T
  14   -431.9863477 -0.218940E+00  0.757E-01    0.06       1.0  T
  15   -432.1337241 -0.147376E+00  0.610E-01    0.04       1.0  T
  16   -432.0674370  0.662871E-01  0.638E-01    0.02       1.0  T
  17   -432.3038623 -0.236425E+00  0.442E-01    0.00       1.0  T
  18   -432.4026623 -0.988000E-01  0.337E-01    0.01       1.0  T
  19   -432.4067040 -0.404173E-02  0.306E-01    0.01       1.0  T
  20   -432.4315654 -0.248613E-01  0.295E-01    0.01       1.0  T
  21   -432.4534998 -0.219344E-01  0.254E-01    0.01       1.0  T
  22   -432.5028333 -0.493335E-01  0.115E-01    0.01       1.0  T
  23   -432.4900490  0.127843E-01  0.161E-01    0.00       1.0  T
  24   -432.5038459 -0.137969E-01  0.113E-01    0.00       1.0  T
  25   -432.5011878  0.265809E-02  0.123E-01    0.00       1.0  T
  26   -432.5113039 -0.101161E-01  0.648E-02    0.00       1.0  T
  27   -432.5070833  0.422057E-02  0.861E-02    0.00       1.0  T
  28   -432.5147404 -0.765706E-02  0.241E-02    0.00       1.0  T
  29   -432.5140640  0.676403E-03  0.347E-02    0.00       1.0  T
  30   -432.5126721  0.139182E-02  0.505E-02    0.00       1.0  T
  31   -432.5130849 -0.412771E-03  0.430E-02    0.00       1.0  T
  32   -432.5147445 -0.165956E-02  0.204E-02    0.00       1.0  T
  33   -432.5151564 -0.411883E-03  0.610E-03    0.00       1.1  T
  34   -432.5151657 -0.937529E-05  0.521E-03    0.00       1.3  T
  35   -432.5151705 -0.477853E-05  0.462E-03    0.00       1.4  T
  36   -432.5151801 -0.960342E-05  0.328E-03    0.00       2.0  T
  37   -432.5151892 -0.911215E-05  0.106E-03    0.00       6.2  T
  38   -432.5151901 -0.902518E-06  0.590E-04    0.00      11.1  T
  39   -432.5151898  0.342808E-06  0.871E-04    0.00       7.5  T

   *** convergence criteria satisfied after 39 iterations ***

         #    Occupation            Energy/Eh            Energy/eV
      -------------------------------------------------------------
         1        2.0000           -0.6800737             -18.5057
       ...           ...                  ...                  ...
       398        2.0000           -0.3637620              -9.8985
       399        2.0000           -0.3581474              -9.7457
       400        2.0000           -0.3528889              -9.6026
       401        2.0000           -0.3488673              -9.4932
       402        1.0067           -0.3227322              -8.7820
       403        1.0062           -0.3227313              -8.7820
       404        1.0055           -0.3227300              -8.7819 (HOMO)
       405        1.0036           -0.3227264              -8.7818 (LUMO)
       406        0.9841           -0.3226893              -8.7808
       407        0.9835           -0.3226882              -8.7808
       408        0.0104           -0.3177242              -8.6457
       409        0.0002           -0.3137585              -8.5378
       ...           ...                  ...                  ...
       772                          1.6319957              44.4089
      -------------------------------------------------------------
                  HL-Gap            0.0000036 Eh            0.0001 eV
             Fermi-level           -0.3227196 Eh           -8.7816 eV

 SCC (total)                   0 d,  0 h,  0 min,  7.057 sec
 SCC setup                      ...        0 min,  0.012 sec (  0.173%)
 Dispersion                     ...        0 min,  0.020 sec (  0.287%)
 classical contributions        ...        0 min,  0.002 sec (  0.028%)
 integral evaluation            ...        0 min,  0.164 sec (  2.319%)
 iterations                     ...        0 min,  6.442 sec ( 91.287%)
 molecular gradient             ...        0 min,  0.396 sec (  5.611%)
 printout                       ...        0 min,  0.021 sec (  0.295%)

         :::::::::::::::::::::::::::::::::::::::::::::::::::::
         ::                     SUMMARY                     ::
         :::::::::::::::::::::::::::::::::::::::::::::::::::::
         :: total energy            -424.872382028044 Eh    ::
         :: gradient norm              0.000283304222 Eh/a0 ::
         :: HOMO-LUMO gap              0.000098724426 eV    ::
         ::.................................................::
         :: SCC energy              -432.515189781409 Eh    ::
         :: -> isotropic ES            0.167217060830 Eh    ::
         :: -> anisotropic ES          0.053636342979 Eh    ::
         :: -> anisotropic XC          0.191048288963 Eh    ::
         :: -> dispersion             -0.379148254690 Eh    ::
         :: repulsion energy           7.649450699936 Eh    ::
         :: add. restraining           0.000000000000 Eh    ::
         :: total charge              -0.000000000000 e     ::
         :::::::::::::::::::::::::::::::::::::::::::::::::::::

           -------------------------------------------------
          |                Property Printout                |
           -------------------------------------------------

    * Orbital Energies and Occupations

         #    Occupation            Energy/Eh            Energy/eV
      -------------------------------------------------------------
         1        2.0000           -0.6800737             -18.5057
       ...           ...                  ...                  ...
       392        2.0000           -0.3713005             -10.1036
       393        2.0000           -0.3702284             -10.0744
       394        2.0000           -0.3702239             -10.0743
       395        2.0000           -0.3701734             -10.0729
       396        2.0000           -0.3701609             -10.0726
       397        2.0000           -0.3689439             -10.0395
       398        2.0000           -0.3637620              -9.8985
       399        2.0000           -0.3581474              -9.7457
       400        2.0000           -0.3528889              -9.6026
       401        2.0000           -0.3488673              -9.4932
       402        1.0067           -0.3227322              -8.7820
       403        1.0062           -0.3227313              -8.7820
       404        1.0055           -0.3227300              -8.7819 (HOMO)
       405        1.0036           -0.3227264              -8.7818 (LUMO)
       406        0.9841           -0.3226893              -8.7808
       407        0.9835           -0.3226882              -8.7808
       408        0.0104           -0.3177242              -8.6457
       409        0.0002           -0.3137585              -8.5378
       410        0.0000           -0.3083902              -8.3917
       411                         -0.3026042              -8.2343
       412                         -0.3006288              -8.1805
       413                         -0.3006208              -8.1803
       414                         -0.3002756              -8.1709
       415                         -0.3002662              -8.1707
       ...                                ...                  ...
       772                          1.6319957              44.4089
      -------------------------------------------------------------
                  HL-Gap            0.0000036 Eh            0.0001 eV
             Fermi-level           -0.3227196 Eh           -8.7816 eV

     #   Z          covCN         q      C6AA      α(0)
     1  29 Cu       2.957     0.198   146.174    27.530
     2   6 C        3.023    -0.051    29.230     8.868
     3   6 C        3.020    -0.049    29.189     8.862
     4   6 C        3.165     0.079    25.920     8.320
     5   6 C        2.953     0.017    27.625     8.621
     6   6 C        3.165     0.079    25.920     8.320
     7   6 C        3.020    -0.049    29.188     8.862
     8   6 C        3.023    -0.051    29.230     8.868
     9   6 C        3.148     0.077    26.022     8.345
    10   7 N        2.620    -0.171    24.720     7.384
    11   6 C        2.901    -0.050    29.229     8.865
    12   6 C        3.144     0.078    26.009     8.344
    13   6 C        3.019    -0.050    29.207     8.865
    14   6 C        3.020    -0.050    29.211     8.866
    15   6 C        3.144     0.079    25.993     8.342
    16   7 N        2.623    -0.170    24.683     7.379
    17   6 C        2.901    -0.051    29.274     8.871
    18   6 C        3.144     0.079    25.993     8.342
    19   6 C        3.020    -0.050    29.211     8.866
    20   6 C        3.019    -0.050    29.207     8.865
    21   6 C        3.144     0.078    26.009     8.344
    22   7 N        2.623    -0.170    24.683     7.379
    23   6 C        2.901    -0.050    29.228     8.865
    24   6 C        3.148     0.077    26.022     8.345
    25   7 N        2.620    -0.171    24.719     7.384
    26   1 H        0.926     0.035     2.522     2.483
    27   1 H        0.926     0.036     2.498     2.472
    28   1 H        0.926     0.036     2.498     2.472
    29   1 H        0.926     0.035     2.522     2.483
    30   1 H        0.926     0.050     2.319     2.381
    31   1 H        0.926     0.035     2.513     2.479
    32   1 H        0.926     0.035     2.514     2.479
    33   1 H        0.926     0.049     2.328     2.386
    34   1 H        0.926     0.035     2.514     2.479
    35   1 H        0.926     0.035     2.513     2.479
    36   1 H        0.926     0.050     2.319     2.381
    37  29 Cu       2.957     0.198   146.174    27.530
    38   6 C        3.023    -0.051    29.230     8.868
    39   6 C        3.020    -0.049    29.189     8.862
    40   6 C        3.165     0.079    25.920     8.320
    41   6 C        2.953     0.017    27.625     8.621
    42   6 C        3.165     0.079    25.920     8.320
    43   6 C        3.020    -0.049    29.188     8.862
    44   6 C        3.023    -0.051    29.230     8.868
    45   6 C        3.148     0.077    26.022     8.345
    46   7 N        2.620    -0.171    24.720     7.384
    47   6 C        2.901    -0.050    29.229     8.865
    48   6 C        3.144     0.078    26.009     8.344
    49   6 C        3.019    -0.050    29.206     8.865
    50   6 C        3.020    -0.050    29.211     8.866
    51   6 C        3.144     0.079    25.993     8.342
    52   7 N        2.623    -0.170    24.683     7.379
    53   6 C        2.901    -0.051    29.274     8.871
    54   6 C        3.144     0.079    25.993     8.342
    55   6 C        3.020    -0.050    29.211     8.866
    56   6 C        3.019    -0.050    29.206     8.865
    57   6 C        3.144     0.078    26.009     8.344
    58   7 N        2.623    -0.170    24.683     7.379
    59   6 C        2.901    -0.050    29.229     8.865
    60   6 C        3.148     0.077    26.022     8.345
    61   7 N        2.620    -0.171    24.720     7.384
    62   1 H        0.926     0.035     2.522     2.483
    63   1 H        0.926     0.036     2.498     2.472
    64   1 H        0.926     0.036     2.498     2.471
    65   1 H        0.926     0.035     2.522     2.483
    66   1 H        0.926     0.050     2.319     2.381
    67   1 H        0.926     0.035     2.513     2.479
    68   1 H        0.926     0.035     2.514     2.479
    69   1 H        0.926     0.049     2.328     2.386
    70   1 H        0.926     0.035     2.514     2.479
    71   1 H        0.926     0.035     2.513     2.479
    72   1 H        0.926     0.050     2.319     2.381
    73   6 C        1.995    -0.020    31.588     9.076
    74   6 C        1.963    -0.009    31.308     9.036
    75   6 C        1.963    -0.009    31.313     9.037
    76   6 C        1.995    -0.020    31.578     9.075
    77   6 C        1.995    -0.020    31.581     9.076
    78   6 C        1.963    -0.009    31.308     9.036
    79   6 C        1.963    -0.009    31.310     9.036
    80   6 C        1.995    -0.020    31.579     9.075
    81   6 C        1.995    -0.020    31.580     9.075
    82   6 C        1.963    -0.009    31.309     9.036
    83   6 C        1.963    -0.009    31.309     9.036
    84   6 C        1.995    -0.020    31.580     9.075
    85   6 C        1.995    -0.020    31.579     9.075
    86   6 C        1.963    -0.009    31.310     9.036
    87   6 C        1.963    -0.009    31.308     9.036
    88   6 C        1.995    -0.020    31.581     9.076
    89   6 C        1.995    -0.020    31.577     9.075
    90   6 C        1.963    -0.009    31.312     9.037
    91   6 C        1.963    -0.009    31.307     9.036
    92   6 C        1.995    -0.020    31.586     9.076
    93  29 Cu       2.947     0.200   146.142    27.527
    94   6 C        3.023    -0.051    29.230     8.868
    95   6 C        3.020    -0.049    29.197     8.863
    96   6 C        3.166     0.079    25.907     8.318
    97   6 C        2.953     0.017    27.629     8.621
    98   6 C        3.166     0.079    25.908     8.318
    99   6 C        3.020    -0.049    29.197     8.863
   100   6 C        3.023    -0.051    29.230     8.868
   101   6 C        3.149     0.077    26.031     8.346
   102   7 N        2.619    -0.173    24.753     7.389
   103   6 C        2.901    -0.047    29.173     8.856
   104   6 C        3.149     0.077    26.031     8.346
   105   6 C        3.023    -0.051    29.230     8.868
   106   6 C        3.020    -0.049    29.196     8.863
   107   6 C        3.166     0.079    25.906     8.318
   108   7 N        2.619    -0.173    24.751     7.389
   109   6 C        2.953     0.017    27.625     8.621
   110   6 C        3.166     0.079    25.906     8.318
   111   6 C        3.020    -0.049    29.197     8.863
   112   6 C        3.023    -0.051    29.230     8.868
   113   6 C        3.149     0.077    26.031     8.346
   114   7 N        2.619    -0.173    24.751     7.389
   115   6 C        2.901    -0.047    29.173     8.856
   116   6 C        3.149     0.077    26.031     8.346
   117   7 N        2.619    -0.173    24.752     7.389
   118   1 H        0.926     0.034     2.530     2.487
   119   1 H        0.926     0.036     2.509     2.477
   120   1 H        0.926     0.036     2.509     2.477
   121   1 H        0.926     0.034     2.530     2.487
   122   1 H        0.926     0.050     2.317     2.380
   123   1 H        0.926     0.034     2.529     2.487
   124   1 H        0.926     0.036     2.507     2.476
   125   1 H        0.926     0.036     2.507     2.476
   126   1 H        0.926     0.034     2.529     2.487
   127   1 H        0.926     0.050     2.317     2.380
   128  29 Cu       2.948     0.201   146.138    27.527
   129   6 C        3.023    -0.051    29.230     8.868
   130   6 C        3.021    -0.049    29.197     8.863
   131   6 C        3.166     0.079    25.906     8.317
   132   6 C        2.953     0.017    27.628     8.621
   133   6 C        3.166     0.079    25.906     8.317
   134   6 C        3.021    -0.049    29.197     8.863
   135   6 C        3.023    -0.051    29.230     8.868
   136   6 C        3.149     0.077    26.031     8.346
   137   7 N        2.619    -0.173    24.750     7.389
   138   6 C        2.901    -0.047    29.171     8.856
   139   6 C        3.149     0.077    26.031     8.346
   140   6 C        3.023    -0.051    29.230     8.868
   141   6 C        3.021    -0.049    29.197     8.863
   142   6 C        3.166     0.079    25.905     8.317
   143   7 N        2.619    -0.173    24.750     7.389
   144   6 C        2.953     0.017    27.627     8.621
   145   6 C        3.166     0.079    25.905     8.317
   146   6 C        3.021    -0.049    29.197     8.863
   147   6 C        3.023    -0.051    29.230     8.868
   148   6 C        3.149     0.077    26.031     8.346
   149   7 N        2.619    -0.173    24.750     7.389
   150   6 C        2.901    -0.047    29.171     8.856
   151   6 C        3.149     0.077    26.031     8.346
   152   7 N        2.619    -0.173    24.751     7.389
   153   1 H        0.926     0.034     2.529     2.487
   154   1 H        0.926     0.036     2.508     2.476
   155   1 H        0.926     0.036     2.508     2.476
   156   1 H        0.926     0.034     2.529     2.487
   157   1 H        0.926     0.050     2.316     2.380
   158   1 H        0.926     0.034     2.529     2.487
   159   1 H        0.926     0.036     2.507     2.476
   160   1 H        0.926     0.036     2.508     2.476
   161   1 H        0.926     0.034     2.529     2.487
   162   1 H        0.926     0.050     2.316     2.380
   163  29 Cu       2.948     0.201   146.138    27.527
   164   6 C        3.023    -0.051    29.230     8.868
   165   6 C        3.021    -0.049    29.197     8.863
   166   6 C        3.166     0.079    25.905     8.317
   167   6 C        2.953     0.017    27.627     8.621
   168   6 C        3.166     0.079    25.905     8.317
   169   6 C        3.021    -0.049    29.197     8.863
   170   6 C        3.023    -0.051    29.230     8.868
   171   6 C        3.149     0.077    26.031     8.346
   172   7 N        2.619    -0.173    24.750     7.389
   173   6 C        2.901    -0.047    29.171     8.856
   174   6 C        3.149     0.077    26.031     8.346
   175   6 C        3.023    -0.051    29.230     8.868
   176   6 C        3.021    -0.049    29.197     8.863
   177   6 C        3.166     0.079    25.906     8.317
   178   7 N        2.619    -0.173    24.751     7.389
   179   6 C        2.953     0.017    27.628     8.621
   180   6 C        3.166     0.079    25.905     8.317
   181   6 C        3.021    -0.049    29.197     8.863
   182   6 C        3.023    -0.051    29.230     8.868
   183   6 C        3.149     0.077    26.031     8.346
   184   7 N        2.619    -0.173    24.750     7.389
   185   6 C        2.901    -0.047    29.171     8.856
   186   6 C        3.150     0.077    26.031     8.345
   187   7 N        2.619    -0.173    24.750     7.389
   188   1 H        0.926     0.034     2.529     2.487
   189   1 H        0.926     0.036     2.507     2.476
   190   1 H        0.926     0.036     2.508     2.476
   191   1 H        0.926     0.034     2.529     2.487
   192   1 H        0.926     0.050     2.316     2.380
   193   1 H        0.926     0.034     2.529     2.487
   194   1 H        0.926     0.036     2.508     2.476
   195   1 H        0.926     0.036     2.508     2.476
   196   1 H        0.926     0.034     2.529     2.487
   197   1 H        0.926     0.050     2.316     2.380
   198  29 Cu       2.948     0.200   146.143    27.527
   199   6 C        3.023    -0.051    29.230     8.868
   200   6 C        3.020    -0.049    29.196     8.863
   201   6 C        3.166     0.079    25.906     8.318
   202   6 C        2.953     0.017    27.625     8.621
   203   6 C        3.166     0.079    25.906     8.317
   204   6 C        3.020    -0.049    29.197     8.863
   205   6 C        3.023    -0.051    29.230     8.868
   206   6 C        3.149     0.077    26.030     8.345
   207   7 N        2.619    -0.173    24.751     7.389
   208   6 C        2.901    -0.047    29.174     8.856
   209   6 C        3.149     0.077    26.030     8.346
   210   6 C        3.023    -0.051    29.230     8.868
   211   6 C        3.020    -0.049    29.197     8.863
   212   6 C        3.166     0.079    25.907     8.318
   213   7 N        2.619    -0.173    24.753     7.389
   214   6 C        2.953     0.017    27.629     8.621
   215   6 C        3.166     0.079    25.907     8.318
   216   6 C        3.020    -0.049    29.197     8.863
   217   6 C        3.023    -0.051    29.230     8.868
   218   6 C        3.149     0.077    26.030     8.346
   219   7 N        2.619    -0.173    24.753     7.389
   220   6 C        2.901    -0.047    29.174     8.856
   221   6 C        3.149     0.077    26.030     8.346
   222   7 N        2.619    -0.173    24.751     7.389
   223   1 H        0.926     0.034     2.529     2.487
   224   1 H        0.926     0.036     2.507     2.476
   225   1 H        0.926     0.036     2.507     2.476
   226   1 H        0.926     0.034     2.529     2.487
   227   1 H        0.926     0.050     2.317     2.380
   228   1 H        0.926     0.034     2.529     2.487
   229   1 H        0.926     0.036     2.509     2.477
   230   1 H        0.926     0.036     2.508     2.477
   231   1 H        0.926     0.034     2.530     2.487
   232   1 H        0.926     0.050     2.317     2.380

 Mol. C6AA /au·bohr⁶  :    1061463.023627
 Mol. C8AA /au·bohr⁸  :   30603044.903012
 Mol. α(0) /au        :       1711.784229


Wiberg/Mayer (AO) data.
largest (>0.10) Wiberg bond orders for each atom

 ---------------------------------------------------------------------------
     #   Z sym  total        # sym  WBO       # sym  WBO       # sym  WBO
 ---------------------------------------------------------------------------
     1  29 Cu   2.331 --    16 N    0.535    22 N    0.535    25 N    0.534
                            10 N    0.533
     2   6 C    3.946 --     3 C    1.650    24 C    1.167    26 H    0.972
     3   6 C    3.949 --     2 C    1.650     4 C    1.175    27 H    0.971
     4   6 C    3.909 --    25 N    1.288     5 C    1.249     3 C    1.175
     5   6 C    3.941 --     6 C    1.250     4 C    1.249    73 C    1.186
     6   6 C    3.909 --    10 N    1.288     5 C    1.250     7 C    1.175
     7   6 C    3.949 --     8 C    1.650     6 C    1.175    28 H    0.971
     8   6 C    3.946 --     7 C    1.650     9 C    1.167    29 H    0.972
     9   6 C    3.921 --    11 C    1.355    10 N    1.249     8 C    1.167
    10   7 N    3.382 --     6 C    1.288     9 C    1.249     1 Cu   0.533
    11   6 C    3.931 --     9 C    1.355    12 C    1.352    30 H    0.964
    12   6 C    3.927 --    11 C    1.352    16 N    1.263    13 C    1.158
    13   6 C    3.950 --    14 C    1.666    12 C    1.158    31 H    0.972
    14   6 C    3.947 --    13 C    1.666    15 C    1.158    32 H    0.972
    15   6 C    3.929 --    17 C    1.351    16 N    1.265    14 C    1.158
    16   7 N    3.377 --    15 C    1.265    12 C    1.263     1 Cu   0.535
    17   6 C    3.926 --    15 C    1.351    18 C    1.351    33 H    0.964
    18   6 C    3.929 --    17 C    1.351    22 N    1.265    19 C    1.158
    19   6 C    3.947 --    20 C    1.666    18 C    1.158    34 H    0.972
    20   6 C    3.950 --    19 C    1.666    21 C    1.158    35 H    0.972
    21   6 C    3.927 --    23 C    1.352    22 N    1.263    20 C    1.158
    22   7 N    3.377 --    18 C    1.265    21 C    1.263     1 Cu   0.535
    23   6 C    3.931 --    24 C    1.355    21 C    1.352    36 H    0.964
    24   6 C    3.921 --    23 C    1.355    25 N    1.249     2 C    1.167
    25   7 N    3.382 --     4 C    1.288    24 C    1.249     1 Cu   0.534
    26   1 H    0.998 --     2 C    0.972
    27   1 H    0.998 --     3 C    0.971
    28   1 H    0.998 --     7 C    0.971
    29   1 H    0.998 --     8 C    0.972
    30   1 H    0.996 --    11 C    0.964
    31   1 H    0.998 --    13 C    0.972
    32   1 H    0.998 --    14 C    0.972
    33   1 H    0.997 --    17 C    0.964
    34   1 H    0.998 --    19 C    0.972
    35   1 H    0.998 --    20 C    0.972
    36   1 H    0.996 --    23 C    0.964
    37  29 Cu   2.331 --    58 N    0.535    52 N    0.535    46 N    0.534
                            61 N    0.534
    38   6 C    3.946 --    39 C    1.650    60 C    1.167    62 H    0.972
    39   6 C    3.949 --    38 C    1.650    40 C    1.175    63 H    0.971
    40   6 C    3.909 --    61 N    1.288    41 C    1.250    39 C    1.175
    41   6 C    3.941 --    42 C    1.250    40 C    1.250    92 C    1.185
    42   6 C    3.909 --    46 N    1.288    41 C    1.250    43 C    1.175
    43   6 C    3.949 --    44 C    1.650    42 C    1.175    64 H    0.971
    44   6 C    3.946 --    43 C    1.650    45 C    1.167    65 H    0.972
    45   6 C    3.921 --    47 C    1.355    46 N    1.249    44 C    1.167
    46   7 N    3.382 --    42 C    1.288    45 C    1.249    37 Cu   0.534
    47   6 C    3.932 --    45 C    1.355    48 C    1.352    66 H    0.964
    48   6 C    3.927 --    47 C    1.352    52 N    1.263    49 C    1.158
    49   6 C    3.950 --    50 C    1.666    48 C    1.158    67 H    0.972
    50   6 C    3.947 --    49 C    1.666    51 C    1.158    68 H    0.972
    51   6 C    3.929 --    53 C    1.352    52 N    1.265    50 C    1.158
    52   7 N    3.377 --    51 C    1.265    48 C    1.263    37 Cu   0.535
    53   6 C    3.926 --    51 C    1.352    54 C    1.351    69 H    0.964
    54   6 C    3.929 --    53 C    1.351    58 N    1.265    55 C    1.158
    55   6 C    3.947 --    56 C    1.666    54 C    1.158    70 H    0.972
    56   6 C    3.950 --    55 C    1.666    57 C    1.158    71 H    0.972
    57   6 C    3.927 --    59 C    1.352    58 N    1.263    56 C    1.158
    58   7 N    3.377 --    54 C    1.265    57 C    1.263    37 Cu   0.535
    59   6 C    3.932 --    60 C    1.355    57 C    1.352    72 H    0.964
    60   6 C    3.921 --    59 C    1.355    61 N    1.249    38 C    1.167
    61   7 N    3.382 --    40 C    1.288    60 C    1.249    37 Cu   0.534
    62   1 H    0.998 --    38 C    0.972
    63   1 H    0.998 --    39 C    0.971
    64   1 H    0.998 --    43 C    0.971
    65   1 H    0.998 --    44 C    0.972
    66   1 H    0.996 --    47 C    0.964
    67   1 H    0.998 --    49 C    0.972
    68   1 H    0.998 --    50 C    0.972
    69   1 H    0.997 --    53 C    0.964
    70   1 H    0.998 --    55 C    0.972
    71   1 H    0.998 --    56 C    0.972
    72   1 H    0.996 --    59 C    0.964
    73   6 C    3.918 --    74 C    2.469     5 C    1.186    76 C    0.203
    74   6 C    3.927 --    73 C    2.469    75 C    1.306
    75   6 C    3.924 --    76 C    2.467    74 C    1.306
    76   6 C    3.919 --    75 C    2.467    97 C    1.188    73 C    0.203
    77   6 C    3.917 --    78 C    2.464   109 C    1.190    80 C    0.202
    78   6 C    3.924 --    77 C    2.464    79 C    1.309
    79   6 C    3.924 --    80 C    2.464    78 C    1.309
    80   6 C    3.917 --    79 C    2.464   132 C    1.190    77 C    0.202
    81   6 C    3.917 --    82 C    2.463   144 C    1.190    84 C    0.202
    82   6 C    3.924 --    81 C    2.463    83 C    1.309
    83   6 C    3.924 --    84 C    2.463    82 C    1.309
    84   6 C    3.917 --    83 C    2.463   167 C    1.190    81 C    0.202
    85   6 C    3.918 --    86 C    2.464   179 C    1.190    88 C    0.202
    86   6 C    3.924 --    85 C    2.464    87 C    1.309
    87   6 C    3.924 --    88 C    2.464    86 C    1.309
    88   6 C    3.917 --    87 C    2.464   202 C    1.190    85 C    0.202
    89   6 C    3.919 --    90 C    2.468   214 C    1.187    92 C    0.203
    90   6 C    3.924 --    89 C    2.468    91 C    1.305
    91   6 C    3.927 --    92 C    2.470    90 C    1.305
    92   6 C    3.918 --    91 C    2.470    41 C    1.185    89 C    0.203
    93  29 Cu   2.304 --   108 N    0.529   114 N    0.529   102 N    0.529
                           117 N    0.529
    94   6 C    3.947 --    95 C    1.649   116 C    1.168   118 H    0.972
    95   6 C    3.948 --    94 C    1.649    96 C    1.176   119 H    0.971
    96   6 C    3.910 --   117 N    1.291    97 C    1.247    95 C    1.176
    97   6 C    3.929 --    98 C    1.247    96 C    1.247    76 C    1.188
    98   6 C    3.910 --   102 N    1.291    97 C    1.247    99 C    1.176
    99   6 C    3.948 --   100 C    1.649    98 C    1.176   120 H    0.971
   100   6 C    3.947 --    99 C    1.649   101 C    1.168   121 H    0.972
   101   6 C    3.920 --   103 C    1.354   102 N    1.248   100 C    1.168
   102   7 N    3.372 --    98 C    1.291   101 C    1.248    93 Cu   0.529
   103   6 C    3.925 --   101 C    1.354   104 C    1.354   122 H    0.964
   104   6 C    3.920 --   103 C    1.354   108 N    1.248   105 C    1.168
   105   6 C    3.947 --   106 C    1.649   104 C    1.168   123 H    0.972
   106   6 C    3.948 --   105 C    1.649   107 C    1.176   124 H    0.971
   107   6 C    3.909 --   108 N    1.291   109 C    1.246   106 C    1.176
   108   7 N    3.373 --   107 C    1.291   104 C    1.248    93 Cu   0.529
   109   6 C    3.929 --   107 C    1.246   110 C    1.246    77 C    1.190
   110   6 C    3.909 --   114 N    1.291   109 C    1.246   111 C    1.176
   111   6 C    3.948 --   112 C    1.649   110 C    1.176   125 H    0.971
   112   6 C    3.947 --   111 C    1.649   113 C    1.168   126 H    0.972
   113   6 C    3.920 --   115 C    1.354   114 N    1.248   112 C    1.168
   114   7 N    3.373 --   110 C    1.291   113 C    1.248    93 Cu   0.529
   115   6 C    3.925 --   116 C    1.354   113 C    1.354   127 H    0.964
   116   6 C    3.920 --   115 C    1.354   117 N    1.248    94 C    1.168
   117   7 N    3.372 --    96 C    1.291   116 C    1.248    93 Cu   0.529
   118   1 H    0.998 --    94 C    0.972
   119   1 H    0.998 --    95 C    0.971
   120   1 H    0.998 --    99 C    0.971
   121   1 H    0.998 --   100 C    0.972
   122   1 H    0.996 --   103 C    0.964
   123   1 H    0.998 --   105 C    0.972
   124   1 H    0.998 --   106 C    0.971
   125   1 H    0.998 --   111 C    0.971
   126   1 H    0.998 --   112 C    0.972
   127   1 H    0.996 --   115 C    0.964
   128  29 Cu   2.305 --   149 N    0.529   152 N    0.529   143 N    0.529
                           137 N    0.529
   129   6 C    3.947 --   130 C    1.649   151 C    1.168   153 H    0.972
   130   6 C    3.948 --   129 C    1.649   131 C    1.176   154 H    0.971
   131   6 C    3.909 --   152 N    1.291   132 C    1.246   130 C    1.176
   132   6 C    3.928 --   131 C    1.246   133 C    1.246    80 C    1.190
   133   6 C    3.909 --   137 N    1.291   132 C    1.246   134 C    1.176
   134   6 C    3.948 --   135 C    1.649   133 C    1.176   155 H    0.971
   135   6 C    3.947 --   134 C    1.649   136 C    1.168   156 H    0.972
   136   6 C    3.920 --   138 C    1.354   137 N    1.247   135 C    1.168
   137   7 N    3.372 --   133 C    1.291   136 C    1.247   128 Cu   0.529
   138   6 C    3.925 --   136 C    1.354   139 C    1.354   157 H    0.964
   139   6 C    3.920 --   138 C    1.354   143 N    1.247   140 C    1.168
   140   6 C    3.947 --   141 C    1.649   139 C    1.168   158 H    0.972
   141   6 C    3.948 --   140 C    1.649   142 C    1.176   159 H    0.971
   142   6 C    3.909 --   143 N    1.291   144 C    1.246   141 C    1.176
   143   7 N    3.372 --   142 C    1.291   139 C    1.247   128 Cu   0.529
   144   6 C    3.928 --   145 C    1.246   142 C    1.246    81 C    1.190
   145   6 C    3.909 --   149 N    1.291   144 C    1.246   146 C    1.176
   146   6 C    3.948 --   147 C    1.649   145 C    1.176   160 H    0.971
   147   6 C    3.947 --   146 C    1.649   148 C    1.168   161 H    0.972
   148   6 C    3.920 --   150 C    1.354   149 N    1.247   147 C    1.168
   149   7 N    3.372 --   145 C    1.291   148 C    1.247   128 Cu   0.529
   150   6 C    3.925 --   151 C    1.354   148 C    1.354   162 H    0.964
   151   6 C    3.920 --   150 C    1.354   152 N    1.247   129 C    1.168
   152   7 N    3.372 --   131 C    1.291   151 C    1.247   128 Cu   0.529
   153   1 H    0.998 --   129 C    0.972
   154   1 H    0.998 --   130 C    0.971
   155   1 H    0.998 --   134 C    0.971
   156   1 H    0.998 --   135 C    0.972
   157   1 H    0.996 --   138 C    0.964
   158   1 H    0.998 --   140 C    0.972
   159   1 H    0.998 --   141 C    0.971
   160   1 H    0.998 --   146 C    0.971
   161   1 H    0.998 --   147 C    0.972
   162   1 H    0.996 --   150 C    0.964
   163  29 Cu   2.306 --   172 N    0.529   178 N    0.529   187 N    0.529
                           184 N    0.529
   164   6 C    3.947 --   165 C    1.649   186 C    1.168   188 H    0.972
   165   6 C    3.948 --   164 C    1.649   166 C    1.176   189 H    0.971
   166   6 C    3.909 --   187 N    1.292   167 C    1.246   165 C    1.176
   167   6 C    3.928 --   168 C    1.246   166 C    1.246    84 C    1.190
   168   6 C    3.909 --   172 N    1.291   167 C    1.246   169 C    1.176
   169   6 C    3.948 --   170 C    1.649   168 C    1.176   190 H    0.971
   170   6 C    3.947 --   169 C    1.649   171 C    1.168   191 H    0.972
   171   6 C    3.920 --   173 C    1.354   172 N    1.247   170 C    1.168
   172   7 N    3.372 --   168 C    1.291   171 C    1.247   163 Cu   0.529
   173   6 C    3.925 --   174 C    1.354   171 C    1.354   192 H    0.964
   174   6 C    3.920 --   173 C    1.354   178 N    1.247   175 C    1.168
   175   6 C    3.947 --   176 C    1.649   174 C    1.168   193 H    0.972
   176   6 C    3.948 --   175 C    1.649   177 C    1.176   194 H    0.971
   177   6 C    3.909 --   178 N    1.291   179 C    1.246   176 C    1.176
   178   7 N    3.372 --   177 C    1.291   174 C    1.247   163 Cu   0.529
   179   6 C    3.928 --   177 C    1.246   180 C    1.246    85 C    1.190
   180   6 C    3.909 --   184 N    1.292   179 C    1.246   181 C    1.176
   181   6 C    3.948 --   182 C    1.649   180 C    1.176   195 H    0.971
   182   6 C    3.947 --   181 C    1.649   183 C    1.168   196 H    0.972
   183   6 C    3.920 --   185 C    1.354   184 N    1.247   182 C    1.168
   184   7 N    3.372 --   180 C    1.292   183 C    1.247   163 Cu   0.529
   185   6 C    3.925 --   183 C    1.354   186 C    1.354   197 H    0.964
   186   6 C    3.920 --   185 C    1.354   187 N    1.247   164 C    1.168
   187   7 N    3.372 --   166 C    1.292   186 C    1.247   163 Cu   0.529
   188   1 H    0.998 --   164 C    0.972
   189   1 H    0.998 --   165 C    0.971
   190   1 H    0.998 --   169 C    0.971
   191   1 H    0.998 --   170 C    0.972
   192   1 H    0.996 --   173 C    0.964
   193   1 H    0.998 --   175 C    0.972
   194   1 H    0.998 --   176 C    0.971
   195   1 H    0.998 --   181 C    0.971
   196   1 H    0.998 --   182 C    0.972
   197   1 H    0.996 --   185 C    0.964
   198  29 Cu   2.304 --   222 N    0.529   207 N    0.529   219 N    0.529
                           213 N    0.529
   199   6 C    3.947 --   200 C    1.649   221 C    1.168   223 H    0.972
   200   6 C    3.948 --   199 C    1.649   201 C    1.176   224 H    0.971
   201   6 C    3.909 --   222 N    1.291   202 C    1.246   200 C    1.176
   202   6 C    3.929 --   201 C    1.246   203 C    1.246    88 C    1.190
   203   6 C    3.909 --   207 N    1.291   202 C    1.246   204 C    1.176
   204   6 C    3.948 --   205 C    1.649   203 C    1.176   225 H    0.971
   205   6 C    3.947 --   204 C    1.649   206 C    1.168   226 H    0.972
   206   6 C    3.920 --   208 C    1.354   207 N    1.248   205 C    1.168
   207   7 N    3.373 --   203 C    1.291   206 C    1.248   198 Cu   0.529
   208   6 C    3.926 --   209 C    1.354   206 C    1.354   227 H    0.964
   209   6 C    3.920 --   208 C    1.354   213 N    1.248   210 C    1.168
   210   6 C    3.947 --   211 C    1.649   209 C    1.168   228 H    0.972
   211   6 C    3.948 --   210 C    1.649   212 C    1.175   229 H    0.971
   212   6 C    3.910 --   213 N    1.291   214 C    1.247   211 C    1.175
   213   7 N    3.372 --   212 C    1.291   209 C    1.248   198 Cu   0.529
   214   6 C    3.929 --   215 C    1.247   212 C    1.247    89 C    1.187
   215   6 C    3.910 --   219 N    1.291   214 C    1.247   216 C    1.175
   216   6 C    3.948 --   217 C    1.649   215 C    1.175   230 H    0.971
   217   6 C    3.947 --   216 C    1.649   218 C    1.168   231 H    0.972
   218   6 C    3.920 --   220 C    1.354   219 N    1.248   217 C    1.168
   219   7 N    3.372 --   215 C    1.291   218 C    1.248   198 Cu   0.529
   220   6 C    3.926 --   218 C    1.354   221 C    1.354   232 H    0.964
   221   6 C    3.920 --   220 C    1.354   222 N    1.248   199 C    1.168
   222   7 N    3.373 --   201 C    1.291   221 C    1.248   198 Cu   0.529
   223   1 H    0.998 --   199 C    0.972
   224   1 H    0.998 --   200 C    0.971
   225   1 H    0.998 --   204 C    0.971
   226   1 H    0.998 --   205 C    0.972
   227   1 H    0.996 --   208 C    0.964
   228   1 H    0.998 --   210 C    0.972
   229   1 H    0.998 --   211 C    0.971
   230   1 H    0.998 --   216 C    0.971
   231   1 H    0.998 --   217 C    0.972
   232   1 H    0.996 --   220 C    0.964
 ---------------------------------------------------------------------------

Topologies differ in total number of bonds
Writing topology from bond orders to xtbtopo.mol

molecular dipole:
                 x           y           z       tot (Debye)
 q only:        0.012      -0.001      -0.000
   full:        0.012      -0.002      -0.001       0.030
molecular quadrupole (traceless):
                xx          xy          yy          xz          yz          zz
 q only:      158.577       0.128     -40.060      -0.060      -3.682    -118.517
  q+dip:      237.028       0.222     -22.945      -0.147      -9.148    -214.083
   full:      188.001       0.208     -38.801      -0.141      -5.282    -149.200


           -------------------------------------------------
          | TOTAL ENERGY             -424.872382028044 Eh   |
          | GRADIENT NORM               0.000283304222 Eh/α |
          | HOMO-LUMO GAP               0.000098724426 eV   |
           -------------------------------------------------

------------------------------------------------------------------------
 * finished run on 2021/11/21 at 01:46:27.940     
------------------------------------------------------------------------
 total:
 * wall-time:     0 d,  0 h,  0 min,  7.184 sec
 *  cpu-time:     0 d,  0 h,  0 min,  7.185 sec
 * ratio c/w:     1.000 speedup
 SCF:
 * wall-time:     0 d,  0 h,  0 min,  7.060 sec
 *  cpu-time:     0 d,  0 h,  0 min,  7.060 sec
 * ratio c/w:     1.000 speedup

