      -----------------------------------------------------------      
     |                   =====================                   |     
     |                           x T B                           |     
     |                   =====================                   |     
     |                         S. Grimme                         |     
     |          Mulliken Center for Theoretical Chemistry        |     
     |                    University of Bonn                     |     
      -----------------------------------------------------------      

   * xtb version 6.4.1 (bd6e46d) compiled by 'conda@4901f00b25ba' on 2021-06-10

   xtb is free software: you can redistribute it and/or modify it under
   the terms of the GNU Lesser General Public License as published by
   the Free Software Foundation, either version 3 of the License, or
   (at your option) any later version.
   
   xtb is distributed in the hope that it will be useful,
   but WITHOUT ANY WARRANTY; without even the implied warranty of
   MERCHANTABILITY or FITNESS FOR A PARTICULAR PURPOSE.  See the
   GNU Lesser General Public License for more details.
   
   Cite this work as:
   * C. Bannwarth, E. Caldeweyher, S. Ehlert, A. Hansen, P. Pracht,
     J. Seibert, S. Spicher, S. Grimme, WIREs Comput. Mol. Sci., 2020, 11,
     e01493. DOI: 10.1002/wcms.1493
   
   for GFN2-xTB:
   * C. Bannwarth, S. Ehlert and S. Grimme., J. Chem. Theory Comput., 2019,
     15, 1652-1671. DOI: 10.1021/acs.jctc.8b01176
   for GFN1-xTB:
   * S. Grimme, C. Bannwarth, P. Shushkov, J. Chem. Theory Comput., 2017,
     13, 1989-2009. DOI: 10.1021/acs.jctc.7b00118
   for GFN0-xTB:
   * P. Pracht, E. Caldeweyher, S. Ehlert, S. Grimme, ChemRxiv, 2019, preprint.
     DOI: 10.26434/chemrxiv.8326202.v1
   for GFN-FF:
   * S. Spicher and S. Grimme, Angew. Chem. Int. Ed., 2020, 59, 15665-15673.
     DOI: 10.1002/anie.202004239
   
   for DFT-D4:
   * E. Caldeweyher, C. Bannwarth and S. Grimme, J. Chem. Phys., 2017,
     147, 034112. DOI: 10.1063/1.4993215
   * E. Caldeweyher, S. Ehlert, A. Hansen, H. Neugebauer, S. Spicher,
     C. Bannwarth and S. Grimme, J. Chem. Phys., 2019, 150, 154122.
     DOI: 10.1063/1.5090222
   * E. Caldeweyher, J.-M. Mewes, S. Ehlert and S. Grimme, Phys. Chem. Chem. Phys.
     2020, 22, 8499-8512. DOI: 10.1039/D0CP00502A
   
   for sTDA-xTB:
   * S. Grimme and C. Bannwarth, J. Chem. Phys., 2016, 145, 054103.
     DOI: 10.1063/1.4959605
   
   in the mass-spec context:
   * V. Asgeirsson, C. Bauer and S. Grimme, Chem. Sci., 2017, 8, 4879.
     DOI: 10.1039/c7sc00601b
   * J. Koopman and S. Grimme, ACS Omega 2019, 4, 12, 15120-15133.
     DOI: 10.1021/acsomega.9b02011
   
   for metadynamics refer to:
   * S. Grimme, J. Chem. Theory Comput., 2019, 155, 2847-2862
     DOI: 10.1021/acs.jctc.9b00143
   
   for SPH calculations refer to:
   * S. Spicher and S. Grimme, J. Chem. Theory Comput., 2021, 17, 1701-1714
     DOI: 10.1021/acs.jctc.0c01306
   
   with help from (in alphabetical order)
   P. Atkinson, C. Bannwarth, F. Bohle, G. Brandenburg, E. Caldeweyher
   M. Checinski, S. Dohm, S. Ehlert, S. Ehrlich, I. Gerasimov, J. Koopman
   C. Lavigne, S. Lehtola, F. März, M. Müller, F. Musil, H. Neugebauer
   J. Pisarek, C. Plett, P. Pracht, J. Seibert, P. Shushkov, S. Spicher
   M. Stahn, M. Steiner, T. Strunk, J. Stückrath, T. Rose, and J. Unsleber
   
 * started run on 2021/11/20 at 09:50:38.536     

           -------------------------------------------------
          |                Calculation Setup                |
           -------------------------------------------------

          program call               : /home/jeff/miniconda3/bin/xtb input_structure_1.xyz --gfn 2 --ohess normal --parallel 1 --etemp 300 --chrg 0 --uhf 0 -I det_control.in
          hostname                   : jelfscompute1
          coordinate file            : input_structure_1.xyz
          omp threads                :                     1
          number of atoms            :                   259
          number of electrons        :                   890
          charge                     :                     0
          spin                       :                   0.0
          first test random number   :      0.55911264159215

   ID    Z sym.   atoms
    1   28 Ni     1, 37, 85, 120, 155, 190, 225
    2    6 C      2-9, 11-15, 17-21, 23, 24, 38-45, 47-51, 53-57, 59, 60,
                  73-84, 86-93, 95-99, 101-105, 107, 108, 121-128, 130-134,
                  136-140, 142, 143, 156-163, 165-169, 171-175, 177, 178,
                  191-198, 200-204, 206-210, 212, 213, 226-233, 235-239,
                  241-245, 247, 248
    3    7 N      10, 16, 22, 25, 46, 52, 58, 61, 94, 100, 106, 109, 129,
                  135, 141, 144, 164, 170, 176, 179, 199, 205, 211, 214, 234,
                  240, 246, 249
    4    1 H      26-36, 62-72, 110-119, 145-154, 180-189, 215-224, 250-259

molecular fragmentation (1/2 indicates fragments):
111111111111111111111111111111111111222222222222222222222222222222222222
222222222222222222222222222222222222222222222222222222222222222222222222
222222222222222222222222222222222222222222222222222222222222222222222222
2222222222222222222222222222222222222222222
# atoms in fragment 1/2:    36   223
 fragment masses (1/2) :      366.02     2335.22
CMA distance (Bohr)    :  73.712
constraining FC (au)   :  0.0500

           -------------------------------------------------
          |                 G F N 2 - x T B                 |
           -------------------------------------------------

        Reference                      10.1021/acs.jctc.8b01176
      * Hamiltonian:
        H0-scaling (s, p, d)           1.850000    2.230000    2.230000
        zeta-weighting                 0.500000
      * Dispersion:
        s8                             2.700000
        a1                             0.520000
        a2                             5.000000
        s9                             5.000000
      * Repulsion:
        kExp                           1.500000    1.000000
        rExp                           1.000000
      * Coulomb:
        alpha                          2.000000
        third order                    shell-resolved
        anisotropic                    true
        a3                             3.000000
        a5                             4.000000
        cn-shift                       1.200000
        cn-exp                         4.000000
        max-rad                        5.000000


          ...................................................
          :                      SETUP                      :
          :.................................................:
          :  # basis functions                 862          :
          :  # atomic orbitals                 855          :
          :  # shells                          453          :
          :  # electrons                       890          :
          :  max. iterations                   250          :
          :  Hamiltonian                  GFN2-xTB          :
          :  restarted?                      false          :
          :  GBSA solvation                  false          :
          :  PC potential                    false          :
          :  electronic temp.          300.0000000     K    :
          :  accuracy                    1.0000000          :
          :  -> integral cutoff          0.2500000E+02      :
          :  -> integral neglect         0.1000000E-07      :
          :  -> SCF convergence          0.1000000E-05 Eh   :
          :  -> wf. convergence          0.1000000E-03 e    :
          :  Broyden damping             0.4000000          :
          ...................................................

 iter      E             dE          RMSdq      gap      omega  full diag
   1   -483.1668603 -0.483167E+03  0.872E+00    0.59       0.0  T
   2   -478.4454421  0.472142E+01  0.563E+00    0.02       1.0  T
   3   -257.7992399  0.220646E+03  0.112E+01    0.12       1.0  T
   4    -94.9427359  0.162857E+03  0.152E+01    0.09       1.0  T
   5   -360.6296270 -0.265687E+03  0.942E+00    0.04       1.0  T
   6   -401.0690122 -0.404394E+02  0.660E+00    0.18       1.0  T
   7   -190.1920157  0.210877E+03  0.131E+01    0.02       1.0  T
   8   -451.5898174 -0.261398E+03  0.680E+00    0.03       1.0  T
   9   -473.4460333 -0.218562E+02  0.412E+00    0.05       1.0  T
  10   -404.5189620  0.689271E+02  0.703E+00    0.01       1.0  T
  11   -462.8312758 -0.583123E+02  0.568E+00    0.01       1.0  T
  12   -465.3391887 -0.250791E+01  0.431E+00    0.01       1.0  T
  13   -439.0330577  0.263061E+02  0.638E+00    0.12       1.0  T
  14   -456.5529942 -0.175199E+02  0.560E+00    0.11       1.0  T
  15   -449.4884462  0.706455E+01  0.578E+00    0.08       1.0  T
  16   -451.9891182 -0.250067E+01  0.567E+00    0.01       1.0  T
  17   -449.7207469  0.226837E+01  0.575E+00    0.04       1.0  T
  18   -448.3614336  0.135931E+01  0.579E+00    0.02       1.0  T
  19   -447.6732112  0.688222E+00  0.584E+00    0.00       1.0  T
  20   -452.9565057 -0.528329E+01  0.560E+00    0.06       1.0  T
  21   -460.7585935 -0.780209E+01  0.500E+00    0.01       1.0  T
  22   -452.5526199  0.820597E+01  0.556E+00    0.02       1.0  T
  23   -459.6768563 -0.712424E+01  0.497E+00    0.03       1.0  T
  24   -464.1800376 -0.450318E+01  0.471E+00    0.05       1.0  T
  25   -454.0437651  0.101363E+02  0.543E+00    0.08       1.0  T
  26   -472.7841061 -0.187403E+02  0.360E+00    0.02       1.0  T
  27   -469.9789470  0.280516E+01  0.569E+00    0.01       1.0  T
  28   -469.0365022  0.942445E+00  0.559E+00    0.01       1.0  T
  29   -483.1786467 -0.141421E+02  0.210E+00    0.03       1.0  T
  30   -483.2640847 -0.854380E-01  0.218E+00    0.04       1.0  T
  31   -481.9995550  0.126453E+01  0.309E+00    0.01       1.0  T
  32   -483.0046336 -0.100508E+01  0.252E+00    0.05       1.0  T
  33   -481.5906694  0.141396E+01  0.331E+00    0.01       1.0  T
  34   -481.6113512 -0.206818E-01  0.330E+00    0.01       1.0  T
  35   -482.1274020 -0.516051E+00  0.304E+00    0.01       1.0  T
  36   -482.0509327  0.764693E-01  0.307E+00    0.01       1.0  T
  37   -481.3238512  0.727082E+00  0.332E+00    0.02       1.0  T
  38   -481.5247309 -0.200880E+00  0.325E+00    0.02       1.0  T
  39   -481.5360530 -0.113222E-01  0.324E+00    0.02       1.0  T
  40   -481.9413222 -0.405269E+00  0.306E+00    0.02       1.0  T
  41   -482.1493849 -0.208063E+00  0.295E+00    0.02       1.0  T
  42   -480.4575817  0.169180E+01  0.374E+00    0.02       1.0  T
  43   -480.7598552 -0.302273E+00  0.359E+00    0.04       1.0  T
  44   -478.1024503  0.265740E+01  0.468E+00    0.04       1.0  T
  45   -471.3170011  0.678545E+01  0.598E+00    0.03       1.0  T
  46   -470.9436551  0.373346E+00  0.607E+00    0.05       1.0  T
  47   -472.6026086 -0.165895E+01  0.571E+00    0.03       1.0  T
  48   -475.3312562 -0.272865E+01  0.521E+00    0.01       1.0  T
  49   -475.6140784 -0.282822E+00  0.520E+00    0.01       1.0  T
  50   -472.0060706  0.360801E+01  0.565E+00    0.09       1.0  T
  51   -473.2268977 -0.122083E+01  0.555E+00    0.03       1.0  T
  52   -469.1376753  0.408922E+01  0.648E+00    0.04       1.0  T
  53   -469.0875957  0.500796E-01  0.649E+00    0.04       1.0  T
  54   -467.6034636  0.148413E+01  0.666E+00    0.05       1.0  T
  55   -467.7836661 -0.180202E+00  0.661E+00    0.04       1.0  T
  56   -467.3208187  0.462847E+00  0.669E+00    0.04       1.0  T
  57   -466.9258662  0.394952E+00  0.676E+00    0.05       1.0  T
  58   -466.2353294  0.690537E+00  0.687E+00    0.08       1.0  T
  59   -466.1555177  0.798117E-01  0.689E+00    0.07       1.0  T
  60   -466.0711302  0.843875E-01  0.690E+00    0.07       1.0  T
  61   -469.7155616 -0.364443E+01  0.633E+00    0.02       1.0  T
  62   -469.9331541 -0.217592E+00  0.630E+00    0.01       1.0  T
  63   -470.9235991 -0.990445E+00  0.595E+00    0.00       1.0  T
  64   -473.9961401 -0.307254E+01  0.533E+00    0.05       1.0  T
  65   -475.3557217 -0.135958E+01  0.501E+00    0.00       1.0  T
  66   -473.0444776  0.231124E+01  0.554E+00    0.04       1.0  T
  67   -472.5347319  0.509746E+00  0.562E+00    0.01       1.0  T
  68   -469.4690182  0.306571E+01  0.608E+00    0.00       1.0  T
  69   -470.3145602 -0.845542E+00  0.612E+00    0.06       1.0  T
  70   -463.0977103  0.721685E+01  0.771E+00    0.05       1.0  T
  71   -465.2566729 -0.215896E+01  0.733E+00    0.03       1.0  T
  72   -463.1535470  0.210313E+01  0.769E+00    0.04       1.0  T
  73   -463.3175230 -0.163976E+00  0.767E+00    0.04       1.0  T
  74   -462.0953112  0.122221E+01  0.784E+00    0.01       1.0  T
  75   -462.2434097 -0.148098E+00  0.785E+00    0.02       1.0  T
  76   -462.6980917 -0.454682E+00  0.780E+00    0.01       1.0  T
  77   -463.0048195 -0.306728E+00  0.775E+00    0.01       1.0  T
  78   -463.6455095 -0.640690E+00  0.763E+00    0.03       1.0  T
  79   -463.4416187  0.203891E+00  0.767E+00    0.02       1.0  T
  80   -463.3755887  0.660300E-01  0.767E+00    0.03       1.0  T
  81   -463.3142137  0.613750E-01  0.768E+00    0.03       1.0  T
  82   -463.1749833  0.139230E+00  0.772E+00    0.02       1.0  T
  83   -463.2872694 -0.112286E+00  0.770E+00    0.02       1.0  T
  84   -463.2844115  0.285787E-02  0.770E+00    0.02       1.0  T
  85   -463.1625209  0.121891E+00  0.772E+00    0.02       1.0  T
  86   -462.6648593  0.497662E+00  0.781E+00    0.01       1.0  T
  87   -462.6549153  0.994406E-02  0.782E+00    0.01       1.0  T
  88   -462.9199800 -0.265065E+00  0.777E+00    0.01       1.0  T
  89   -462.1790154  0.740965E+00  0.789E+00    0.01       1.0  T
  90   -462.2454178 -0.664023E-01  0.790E+00    0.02       1.0  T
  91   -462.0081695  0.237248E+00  0.794E+00    0.02       1.0  T
  92   -462.4002956 -0.392126E+00  0.789E+00    0.02       1.0  T
  93   -462.9234383 -0.523143E+00  0.778E+00    0.01       1.0  T
  94   -462.7713265  0.152112E+00  0.781E+00    0.00       1.0  T
  95   -462.9263332 -0.155007E+00  0.778E+00    0.01       1.0  T
  96   -462.9865050 -0.601718E-01  0.777E+00    0.01       1.0  T
  97   -463.3534170 -0.366912E+00  0.770E+00    0.02       1.0  T
  98   -461.3499116  0.200351E+01  0.807E+00    0.02       1.0  T
  99   -459.9488063  0.140111E+01  0.824E+00    0.00       1.0  T
 100   -459.5472206  0.401586E+00  0.829E+00    0.01       1.0  T
 101   -459.5481253 -0.904761E-03  0.829E+00    0.02       1.0  T
 102   -459.3691271  0.178998E+00  0.834E+00    0.02       1.0  T
 103   -462.1842517 -0.281512E+01  0.801E+00    0.01       1.0  T
 104   -463.1188177 -0.934566E+00  0.787E+00    0.01       1.0  T
 105   -462.0713234  0.104749E+01  0.805E+00    0.01       1.0  T
 106   -460.7398800  0.133144E+01  0.825E+00    0.00       1.0  T
 107   -460.8504500 -0.110570E+00  0.824E+00    0.01       1.0  T
 108   -460.8466810  0.376893E-02  0.824E+00    0.01       1.0  T
 109   -460.8307591  0.159219E-01  0.825E+00    0.02       1.0  T
 110   -462.4722712 -0.164151E+01  0.797E+00    0.05       1.0  T
 111   -462.9447749 -0.472504E+00  0.787E+00    0.05       1.0  T
 112   -462.7101650  0.234610E+00  0.792E+00    0.05       1.0  T
 113   -462.8962286 -0.186064E+00  0.787E+00    0.04       1.0  T
 114   -464.3544473 -0.145822E+01  0.773E+00    0.02       1.0  T
 115   -464.9248152 -0.570368E+00  0.765E+00    0.03       1.0  T
 116   -465.0900678 -0.165253E+00  0.763E+00    0.04       1.0  T
 117   -465.6173715 -0.527304E+00  0.757E+00    0.02       1.0  T
 118   -464.6864433  0.930928E+00  0.774E+00    0.04       1.0  T
 119   -465.5708722 -0.884429E+00  0.743E+00    0.04       1.0  T
 120   -468.4858690 -0.291500E+01  0.695E+00    0.00       1.0  T
 121   -472.4446468 -0.395878E+01  0.617E+00    0.00       1.0  T
 122   -471.4943408  0.950306E+00  0.634E+00    0.01       1.0  T
 123   -471.7099881 -0.215647E+00  0.627E+00    0.01       1.0  T
 124   -471.6729936  0.369945E-01  0.627E+00    0.01       1.0  T
 125   -471.5038034  0.169190E+00  0.629E+00    0.01       1.0  T
 126   -471.2498307  0.253973E+00  0.640E+00    0.02       1.0  T
 127   -471.9025914 -0.652761E+00  0.613E+00    0.01       1.0  T
 128   -473.9668249 -0.206423E+01  0.572E+00    0.04       1.0  T
 129   -474.2441530 -0.277328E+00  0.557E+00    0.02       1.0  T
 130   -473.8095383  0.434615E+00  0.557E+00    0.01       1.0  T
 131   -473.8639536 -0.544152E-01  0.561E+00    0.01       1.0  T
 132   -473.8738612 -0.990757E-02  0.560E+00    0.01       1.0  T
 133   -473.1962957  0.677565E+00  0.581E+00    0.02       1.0  T
 134   -472.9762452  0.220050E+00  0.587E+00    0.02       1.0  T
 135   -472.9285088  0.477365E-01  0.593E+00    0.02       1.0  T
 136   -472.7134461  0.215063E+00  0.599E+00    0.03       1.0  T
 137   -472.6887590  0.246872E-01  0.601E+00    0.04       1.0  T
 138   -472.6231100  0.656489E-01  0.601E+00    0.02       1.0  T
 139   -472.6052495  0.178606E-01  0.600E+00    0.02       1.0  T
 140   -472.6012818  0.396765E-02  0.600E+00    0.02       1.0  T
 141   -473.2163527 -0.615071E+00  0.581E+00    0.04       1.0  T
 142   -473.2731840 -0.568314E-01  0.579E+00    0.04       1.0  T
 143   -472.7200969  0.553087E+00  0.595E+00    0.06       1.0  T
 144   -471.3882883  0.133181E+01  0.599E+00    0.00       1.0  T
 145   -471.4799187 -0.916303E-01  0.597E+00    0.01       1.0  T
 146   -471.5034638 -0.235452E-01  0.596E+00    0.01       1.0  T
 147   -472.1129688 -0.609505E+00  0.583E+00    0.01       1.0  T
 148   -473.0632543 -0.950285E+00  0.563E+00    0.01       1.0  T
 149   -473.5706328 -0.507379E+00  0.552E+00    0.00       1.0  T
 150   -474.2521845 -0.681552E+00  0.538E+00    0.00       1.0  T
 151   -472.4114483  0.184074E+01  0.576E+00    0.10       1.0  T
 152   -472.0928257  0.318623E+00  0.584E+00    0.12       1.0  T
 153   -471.7336800  0.359146E+00  0.593E+00    0.05       1.0  T
 154   -471.3774604  0.356220E+00  0.598E+00    0.05       1.0  T
 155   -471.3618476  0.156128E-01  0.597E+00    0.07       1.0  T
 156   -471.2777623  0.840853E-01  0.607E+00    0.02       1.0  T
 157   -471.3668546 -0.890923E-01  0.603E+00    0.04       1.0  T
 158   -471.3396170  0.272376E-01  0.607E+00    0.02       1.0  T
 159   -471.3858356 -0.462186E-01  0.607E+00    0.02       1.0  T
 160   -471.4085800 -0.227444E-01  0.606E+00    0.02       1.0  T
 161   -471.4056119  0.296805E-02  0.605E+00    0.02       1.0  T
 162   -471.0892295  0.316382E+00  0.600E+00    0.04       1.0  T
 163   -470.9990225  0.902070E-01  0.598E+00    0.06       1.0  T
 164   -471.1849865 -0.185964E+00  0.596E+00    0.10       1.0  T
 165   -471.2374901 -0.525036E-01  0.595E+00    0.10       1.0  T
 166   -471.2254361  0.120540E-01  0.596E+00    0.10       1.0  T
 167   -471.3228665 -0.974304E-01  0.595E+00    0.09       1.0  T
 168   -471.1497525  0.173114E+00  0.597E+00    0.08       1.0  T
 169   -471.1529161 -0.316366E-02  0.597E+00    0.07       1.0  T
 170   -471.1431508  0.976535E-02  0.598E+00    0.07       1.0  T
 171   -471.0598378  0.833130E-01  0.596E+00    0.07       1.0  T
 172   -472.9558528 -0.189601E+01  0.556E+00    0.03       1.0  T
 173   -471.9775222  0.978331E+00  0.567E+00    0.02       1.0  T
 174   -474.1181510 -0.214063E+01  0.534E+00    0.02       1.0  T
 175   -472.9389882  0.117916E+01  0.550E+00    0.04       1.0  T
 176   -472.6723368  0.266651E+00  0.561E+00    0.05       1.0  T
 177   -472.4031843  0.269152E+00  0.564E+00    0.04       1.0  T
 178   -472.6865075 -0.283323E+00  0.553E+00    0.01       1.0  T
 179   -472.5249964  0.161511E+00  0.558E+00    0.03       1.0  T
 180   -471.5431831  0.981813E+00  0.579E+00    0.04       1.0  T
 181   -471.6015555 -0.583725E-01  0.577E+00    0.04       1.0  T
 182   -471.4490209  0.152535E+00  0.577E+00    0.01       1.0  T
 183   -471.5108801 -0.618592E-01  0.576E+00    0.02       1.0  T
 184   -471.2980968  0.212783E+00  0.580E+00    0.03       1.0  T
 185   -471.2803503  0.177465E-01  0.580E+00    0.03       1.0  T
 186   -470.8026033  0.477747E+00  0.579E+00    0.02       1.0  T
 187   -471.1460587 -0.343455E+00  0.573E+00    0.01       1.0  T
 188   -472.0293775 -0.883319E+00  0.558E+00    0.00       1.0  T
 189   -472.4948310 -0.465454E+00  0.552E+00    0.00       1.0  T
 190   -471.8270457  0.667785E+00  0.564E+00    0.01       1.0  T
 191   -470.6218648  0.120518E+01  0.606E+00    0.00       1.0  T
 192   -471.1241437 -0.502279E+00  0.576E+00    0.00       1.0  T
 193   -469.6077951  0.151635E+01  0.596E+00    0.01       1.0  T
 194   -471.4834063 -0.187561E+01  0.563E+00    0.00       1.0  T
 195   -471.2043902  0.279016E+00  0.573E+00    0.00       1.0  T
 196   -471.2100634 -0.567326E-02  0.572E+00    0.00       1.0  T
 197   -471.2379735 -0.279100E-01  0.572E+00    0.00       1.0  T
 198   -471.3612834 -0.123310E+00  0.576E+00    0.03       1.0  T
 199   -472.3119112 -0.950628E+00  0.557E+00    0.02       1.0  T
 200   -472.2033271  0.108584E+00  0.577E+00    0.04       1.0  T
 201   -472.4831253 -0.279798E+00  0.565E+00    0.02       1.0  T
 202   -469.3246319  0.315849E+01  0.614E+00    0.01       1.0  T
 203   -468.8467200  0.477912E+00  0.612E+00    0.03       1.0  T
 204   -470.5747914 -0.172807E+01  0.587E+00    0.04       1.0  T
 205   -470.6740818 -0.992904E-01  0.589E+00    0.00       1.0  T
 206   -469.8591458  0.814936E+00  0.629E+00    0.04       1.0  T
 207   -471.0348470 -0.117570E+01  0.611E+00    0.03       1.0  T
 208   -471.9724573 -0.937610E+00  0.599E+00    0.03       1.0  T
 209   -472.6313250 -0.658868E+00  0.583E+00    0.03       1.0  T
 210   -472.8230666 -0.191742E+00  0.578E+00    0.01       1.0  T
 211   -469.7359309  0.308714E+01  0.648E+00    0.02       1.0  T
 212   -468.9977100  0.738221E+00  0.671E+00    0.04       1.0  T
 213   -468.8842196  0.113490E+00  0.671E+00    0.02       1.0  T
 214   -469.6706696 -0.786450E+00  0.651E+00    0.00       1.0  T
 215   -469.3987914  0.271878E+00  0.663E+00    0.02       1.0  T
 216   -470.7320581 -0.133327E+01  0.638E+00    0.02       1.0  T
 217   -472.3202515 -0.158819E+01  0.598E+00    0.03       1.0  T
 218   -471.2954082  0.102484E+01  0.631E+00    0.00       1.0  T
 219   -473.2725765 -0.197717E+01  0.574E+00    0.03       1.0  T
 220   -474.0966085 -0.824032E+00  0.558E+00    0.01       1.0  T
 221   -473.0768056  0.101980E+01  0.579E+00    0.02       1.0  T
 222   -476.2212352 -0.314443E+01  0.505E+00    0.01       1.0  T
 223   -476.1367037  0.845316E-01  0.499E+00    0.02       1.0  T
 224   -475.9318091  0.204895E+00  0.509E+00    0.00       1.0  T
 225   -475.1639741  0.767835E+00  0.526E+00    0.01       1.0  T
 226   -475.9858068 -0.821833E+00  0.508E+00    0.01       1.0  T
 227   -475.5393065  0.446500E+00  0.520E+00    0.03       1.0  T
 228   -471.8691413  0.367017E+01  0.670E+00    0.01       1.0  T
 229   -474.0128032 -0.214366E+01  0.602E+00    0.01       1.0  T
 230   -468.3068797  0.570592E+01  0.716E+00    0.03       1.0  T
 231   -470.5357965 -0.222892E+01  0.667E+00    0.00       1.0  T
 232   -468.9205611  0.161524E+01  0.703E+00    0.00       1.0  T
 233   -469.6304350 -0.709874E+00  0.696E+00    0.01       1.0  T
 234   -469.5329081  0.975269E-01  0.683E+00    0.02       1.0  T
 235   -468.3975669  0.113534E+01  0.718E+00    0.01       1.0  T
 236   -467.8680598  0.529507E+00  0.732E+00    0.01       1.0  T
 237   -467.0773462  0.790714E+00  0.752E+00    0.01       1.0  T
 238   -467.1243113 -0.469651E-01  0.753E+00    0.02       1.0  T
 239   -469.9592695 -0.283496E+01  0.708E+00    0.01       1.0  T
 240   -469.9181437  0.411258E-01  0.709E+00    0.01       1.0  T
 241   -469.3344323  0.583711E+00  0.715E+00    0.02       1.0  T
 242   -468.8156152  0.518817E+00  0.724E+00    0.04       1.0  T
 243   -473.3319964 -0.451638E+01  0.651E+00    0.04       1.0  T
 244   -475.8261086 -0.249411E+01  0.584E+00    0.03       1.0  T
 245   -476.2530225 -0.426914E+00  0.569E+00    0.01       1.0  T
 246   -476.2501312  0.289127E-02  0.569E+00    0.01       1.0  T
 247   -476.1870799  0.630513E-01  0.570E+00    0.02       1.0  T
 248   -476.0916246  0.954553E-01  0.573E+00    0.03       1.0  T
 249   -476.3546662 -0.263042E+00  0.564E+00    0.04       1.0  T
 250   -476.3869484 -0.322822E-01  0.563E+00    0.03       1.0  T

   *** convergence criteria cannot be satisfied within 250 iterations ***

         #    Occupation            Energy/Eh            Energy/eV
      -------------------------------------------------------------
         1        2.0000           -0.7080496             -19.2670
       ...           ...                  ...                  ...
       439        1.9974           -0.3278800              -8.9221
       440        1.9945           -0.3271450              -8.9021
       441        1.9514           -0.3250617              -8.8454
       442        1.9325           -0.3247398              -8.8366
       443        1.6655           -0.3230787              -8.7914
       444        1.4429           -0.3224578              -8.7745
       445        1.2351           -0.3220088              -8.7623 (HOMO)
       446        0.6350           -0.3208266              -8.7301 (LUMO)
       447        0.4555           -0.3203937              -8.7184
       448        0.3593           -0.3201109              -8.7107
       449        0.1128           -0.3188772              -8.6771
       450        0.1037           -0.3187922              -8.6748
       ...           ...                  ...                  ...
       855                          1.4321861              38.9718
      -------------------------------------------------------------
                  HL-Gap            0.0011822 Eh            0.0322 eV
             Fermi-level           -0.3215536 Eh           -8.7499 eV

 SCC (total)                   0 d,  0 h,  0 min, 55.107 sec
 SCC setup                      ...        0 min,  0.015 sec (  0.027%)
 Dispersion                     ...        0 min,  0.029 sec (  0.053%)
 classical contributions        ...        0 min,  0.004 sec (  0.008%)
 integral evaluation            ...        0 min,  0.183 sec (  0.333%)
 iterations                     ...        0 min, 54.337 sec ( 98.603%)
 molecular gradient             ...        0 min,  0.510 sec (  0.925%)
 printout                       ...        0 min,  0.029 sec (  0.052%)

########################################################################
[ERROR] Program stopped due to fatal error
-3- Single point calculation terminated
-2- xtb_calculator_singlepoint: Electronic structure method terminated
-1- scf: Self consistent charge iterator did not converge
########################################################################
