      -----------------------------------------------------------      
     |                   =====================                   |     
     |                           x T B                           |     
     |                   =====================                   |     
     |                         S. Grimme                         |     
     |          Mulliken Center for Theoretical Chemistry        |     
     |                    University of Bonn                     |     
      -----------------------------------------------------------      

   * xtb version 6.4.1 (bd6e46d) compiled by 'conda@4901f00b25ba' on 2021-06-10

   xtb is free software: you can redistribute it and/or modify it under
   the terms of the GNU Lesser General Public License as published by
   the Free Software Foundation, either version 3 of the License, or
   (at your option) any later version.
   
   xtb is distributed in the hope that it will be useful,
   but WITHOUT ANY WARRANTY; without even the implied warranty of
   MERCHANTABILITY or FITNESS FOR A PARTICULAR PURPOSE.  See the
   GNU Lesser General Public License for more details.
   
   Cite this work as:
   * C. Bannwarth, E. Caldeweyher, S. Ehlert, A. Hansen, P. Pracht,
     J. Seibert, S. Spicher, S. Grimme, WIREs Comput. Mol. Sci., 2020, 11,
     e01493. DOI: 10.1002/wcms.1493
   
   for GFN2-xTB:
   * C. Bannwarth, S. Ehlert and S. Grimme., J. Chem. Theory Comput., 2019,
     15, 1652-1671. DOI: 10.1021/acs.jctc.8b01176
   for GFN1-xTB:
   * S. Grimme, C. Bannwarth, P. Shushkov, J. Chem. Theory Comput., 2017,
     13, 1989-2009. DOI: 10.1021/acs.jctc.7b00118
   for GFN0-xTB:
   * P. Pracht, E. Caldeweyher, S. Ehlert, S. Grimme, ChemRxiv, 2019, preprint.
     DOI: 10.26434/chemrxiv.8326202.v1
   for GFN-FF:
   * S. Spicher and S. Grimme, Angew. Chem. Int. Ed., 2020, 59, 15665-15673.
     DOI: 10.1002/anie.202004239
   
   for DFT-D4:
   * E. Caldeweyher, C. Bannwarth and S. Grimme, J. Chem. Phys., 2017,
     147, 034112. DOI: 10.1063/1.4993215
   * E. Caldeweyher, S. Ehlert, A. Hansen, H. Neugebauer, S. Spicher,
     C. Bannwarth and S. Grimme, J. Chem. Phys., 2019, 150, 154122.
     DOI: 10.1063/1.5090222
   * E. Caldeweyher, J.-M. Mewes, S. Ehlert and S. Grimme, Phys. Chem. Chem. Phys.
     2020, 22, 8499-8512. DOI: 10.1039/D0CP00502A
   
   for sTDA-xTB:
   * S. Grimme and C. Bannwarth, J. Chem. Phys., 2016, 145, 054103.
     DOI: 10.1063/1.4959605
   
   in the mass-spec context:
   * V. Asgeirsson, C. Bauer and S. Grimme, Chem. Sci., 2017, 8, 4879.
     DOI: 10.1039/c7sc00601b
   * J. Koopman and S. Grimme, ACS Omega 2019, 4, 12, 15120-15133.
     DOI: 10.1021/acsomega.9b02011
   
   for metadynamics refer to:
   * S. Grimme, J. Chem. Theory Comput., 2019, 155, 2847-2862
     DOI: 10.1021/acs.jctc.9b00143
   
   for SPH calculations refer to:
   * S. Spicher and S. Grimme, J. Chem. Theory Comput., 2021, 17, 1701-1714
     DOI: 10.1021/acs.jctc.0c01306
   
   with help from (in alphabetical order)
   P. Atkinson, C. Bannwarth, F. Bohle, G. Brandenburg, E. Caldeweyher
   M. Checinski, S. Dohm, S. Ehlert, S. Ehrlich, I. Gerasimov, J. Koopman
   C. Lavigne, S. Lehtola, F. März, M. Müller, F. Musil, H. Neugebauer
   J. Pisarek, C. Plett, P. Pracht, J. Seibert, P. Shushkov, S. Spicher
   M. Stahn, M. Steiner, T. Strunk, J. Stückrath, T. Rose, and J. Unsleber
   
 * started run on 2021/11/21 at 05:29:34.666     

           -------------------------------------------------
          |                Calculation Setup                |
           -------------------------------------------------

          program call               : /home/jeff/miniconda3/bin/xtb input_structure_1.xyz --gfn 2 --ohess normal --parallel 1 --etemp 300 --chrg 0 --uhf 0 -I det_control.in
          hostname                   : jelfscompute1
          coordinate file            : input_structure_1.xyz
          omp threads                :                     1
          number of atoms            :                   296
          number of electrons        :                  1018
          charge                     :                     0
          spin                       :                   0.0
          first test random number   :      0.86682345150393

   ID    Z sym.   atoms
    1   28 Ni     1, 37, 87, 122, 157, 192, 227, 262
    2    6 C      2-9, 11-15, 17-21, 23, 24, 38-45, 47-51, 53-57, 59, 60,
                  73-86, 88-95, 97-101, 103-107, 109, 110, 123-130, 132-136,
                  138-142, 144, 145, 158-165, 167-171, 173-177, 179, 180,
                  193-200, 202-206, 208-212, 214, 215, 228-235, 237-241,
                  243-247, 249, 250, 263-270, 272-276, 278-282, 284, 285
    3    7 N      10, 16, 22, 25, 46, 52, 58, 61, 96, 102, 108, 111, 131,
                  137, 143, 146, 166, 172, 178, 181, 201, 207, 213, 216, 236,
                  242, 248, 251, 271, 277, 283, 286
    4    1 H      26-36, 62-72, 112-121, 147-156, 182-191, 217-226, 252-261,
                  287-296

molecular fragmentation (1/2 indicates fragments):
111111111111111111111111111111111111222222222222222222222222222222222222
222222222222222222222222222222222222222222222222222222222222222222222222
222222222222222222222222222222222222222222222222222222222222222222222222
222222222222222222222222222222222222222222222222222222222222222222222222
22222222
# atoms in fragment 1/2:    36   260
 fragment masses (1/2) :      366.02     2724.26
CMA distance (Bohr)    :  83.876
constraining FC (au)   :  0.0500

           -------------------------------------------------
          |                 G F N 2 - x T B                 |
           -------------------------------------------------

        Reference                      10.1021/acs.jctc.8b01176
      * Hamiltonian:
        H0-scaling (s, p, d)           1.850000    2.230000    2.230000
        zeta-weighting                 0.500000
      * Dispersion:
        s8                             2.700000
        a1                             0.520000
        a2                             5.000000
        s9                             5.000000
      * Repulsion:
        kExp                           1.500000    1.000000
        rExp                           1.000000
      * Coulomb:
        alpha                          2.000000
        third order                    shell-resolved
        anisotropic                    true
        a3                             3.000000
        a5                             4.000000
        cn-shift                       1.200000
        cn-exp                         4.000000
        max-rad                        5.000000


          ...................................................
          :                      SETUP                      :
          :.................................................:
          :  # basis functions                 986          :
          :  # atomic orbitals                 978          :
          :  # shells                          518          :
          :  # electrons                      1018          :
          :  max. iterations                   250          :
          :  Hamiltonian                  GFN2-xTB          :
          :  restarted?                      false          :
          :  GBSA solvation                  false          :
          :  PC potential                    false          :
          :  electronic temp.          300.0000000     K    :
          :  accuracy                    1.0000000          :
          :  -> integral cutoff          0.2500000E+02      :
          :  -> integral neglect         0.1000000E-07      :
          :  -> SCF convergence          0.1000000E-05 Eh   :
          :  -> wf. convergence          0.1000000E-03 e    :
          :  Broyden damping             0.4000000          :
          ...................................................

 iter      E             dE          RMSdq      gap      omega  full diag
   1   -552.7375154 -0.552738E+03  0.873E+00    0.59       0.0  T
   2   -548.1014733  0.463604E+01  0.544E+00    0.02       1.0  T
   3   -278.0357584  0.270066E+03  0.112E+01    0.12       1.0  T
   4     52.4725500  0.330508E+03  0.169E+01    0.01       1.0  T
   5   -405.8901572 -0.458363E+03  0.848E+00    0.03       1.0  T
   6   -349.6293962  0.562608E+02  0.819E+00    0.01       1.0  T
   7   -343.5500115  0.607938E+01  0.977E+00    0.03       1.0  T
   8   -518.7945085 -0.175244E+03  0.673E+00    0.06       1.0  T
   9   -539.8286509 -0.210341E+02  0.461E+00    0.03       1.0  T
  10   -522.4574446  0.173712E+02  0.601E+00    0.03       1.0  T
  11   -520.6601001  0.179734E+01  0.586E+00    0.01       1.0  T
  12   -519.8999253  0.760175E+00  0.548E+00    0.07       1.0  T
  13   -543.0625913 -0.231627E+02  0.325E+00    0.05       1.0  T
  14   -540.0437360  0.301886E+01  0.443E+00    0.04       1.0  T
  15   -550.3988934 -0.103552E+02  0.258E+00    0.04       1.0  T
  16   -543.8162906  0.658260E+01  0.404E+00    0.09       1.0  T
  17   -544.2613910 -0.445100E+00  0.403E+00    0.13       1.0  T
  18   -544.1972537  0.641374E-01  0.403E+00    0.14       1.0  T
  19   -543.6205846  0.576669E+00  0.396E+00    0.09       1.0  T
  20   -544.2563839 -0.635799E+00  0.426E+00    0.01       1.0  T
  21   -544.4288594 -0.172475E+00  0.420E+00    0.00       1.0  T
  22   -542.7992835  0.162958E+01  0.441E+00    0.04       1.0  T
  23   -535.9608878  0.683840E+01  0.554E+00    0.09       1.0  T
  24   -537.6756312 -0.171474E+01  0.525E+00    0.08       1.0  T
  25   -538.3716466 -0.696015E+00  0.513E+00    0.00       1.0  T
  26   -538.2710029  0.100644E+00  0.514E+00    0.00       1.0  T
  27   -538.7864892 -0.515486E+00  0.511E+00    0.06       1.0  T
  28   -539.8723456 -0.108586E+01  0.504E+00    0.03       1.0  T
  29   -543.8727928 -0.400045E+01  0.477E+00    0.07       1.0  T
  30   -543.8282414  0.445514E-01  0.477E+00    0.08       1.0  T
  31   -541.5579782  0.227026E+01  0.510E+00    0.04       1.0  T
  32   -540.7375925  0.820386E+00  0.518E+00    0.01       1.0  T
  33   -541.6545102 -0.916918E+00  0.521E+00    0.02       1.0  T
  34   -541.6968947 -0.423845E-01  0.520E+00    0.02       1.0  T
  35   -538.2988130  0.339808E+01  0.577E+00    0.05       1.0  T
  36   -538.2057332  0.930797E-01  0.578E+00    0.05       1.0  T
  37   -535.2827922  0.292294E+01  0.624E+00    0.01       1.0  T
  38   -535.3001695 -0.173773E-01  0.622E+00    0.01       1.0  T
  39   -535.2894723  0.106972E-01  0.619E+00    0.01       1.0  T
  40   -533.7006365  0.158884E+01  0.598E+00    0.01       1.0  T
  41   -533.1186705  0.581966E+00  0.569E+00    0.01       1.0  T
  42   -535.2349900 -0.211632E+01  0.577E+00    0.06       1.0  T
  43   -533.5574061  0.167758E+01  0.599E+00    0.02       1.0  T
  44   -533.0133541  0.544052E+00  0.586E+00    0.01       1.0  T
  45   -532.7807702  0.232584E+00  0.628E+00    0.02       1.0  T
  46   -532.6883622  0.924080E-01  0.630E+00    0.03       1.0  T
  47   -531.9731286  0.715234E+00  0.646E+00    0.04       1.0  T
  48   -532.2763588 -0.303230E+00  0.655E+00    0.03       1.0  T
  49   -536.7542458 -0.447789E+01  0.593E+00    0.02       1.0  T
  50   -536.7896667 -0.354209E-01  0.595E+00    0.03       1.0  T
  51   -536.2092168  0.580450E+00  0.612E+00    0.01       1.0  T
  52   -535.6339284  0.575288E+00  0.625E+00    0.01       1.0  T
  53   -534.7693094  0.864619E+00  0.666E+00    0.03       1.0  T
  54   -535.6267579 -0.857449E+00  0.662E+00    0.00       1.0  T
  55   -535.8053418 -0.178584E+00  0.660E+00    0.01       1.0  T
  56   -535.6740013  0.131341E+00  0.670E+00    0.02       1.0  T
  57   -535.8043869 -0.130386E+00  0.670E+00    0.02       1.0  T
  58   -538.4066520 -0.260227E+01  0.591E+00    0.01       1.0  T
  59   -535.7614042  0.264525E+01  0.584E+00    0.04       1.0  T
  60   -538.4636716 -0.270227E+01  0.567E+00    0.02       1.0  T
  61   -538.7007051 -0.237034E+00  0.589E+00    0.01       1.0  T
  62   -539.7727386 -0.107203E+01  0.570E+00    0.03       1.0  T
  63   -538.5714230  0.120132E+01  0.591E+00    0.00       1.0  T
  64   -538.6525650 -0.811420E-01  0.587E+00    0.03       1.0  T
  65   -538.8539196 -0.201355E+00  0.597E+00    0.01       1.0  T
  66   -535.1435804  0.371034E+01  0.658E+00    0.01       1.0  T
  67   -533.4075118  0.173607E+01  0.683E+00    0.02       1.0  T
  68   -533.3935170  0.139948E-01  0.683E+00    0.02       1.0  T
  69   -535.1581488 -0.176463E+01  0.670E+00    0.00       1.0  T
  70   -534.6707125  0.487436E+00  0.681E+00    0.01       1.0  T
  71   -534.4704073  0.200305E+00  0.673E+00    0.01       1.0  T
  72   -536.7881266 -0.231772E+01  0.632E+00    0.02       1.0  T
  73   -532.5317844  0.425634E+01  0.702E+00    0.01       1.0  T
  74   -532.5319802 -0.195795E-03  0.702E+00    0.01       1.0  T
  75   -532.5653522 -0.333720E-01  0.701E+00    0.01       1.0  T
  76   -532.1929516  0.372401E+00  0.706E+00    0.06       1.0  T
  77   -534.5268831 -0.233393E+01  0.679E+00    0.01       1.0  T
  78   -533.5601352  0.966748E+00  0.692E+00    0.01       1.0  T
  79   -536.2330473 -0.267291E+01  0.666E+00    0.01       1.0  T
  80   -529.1836207  0.704943E+01  0.742E+00    0.03       1.0  T
  81   -534.2725448 -0.508892E+01  0.666E+00    0.03       1.0  T
  82   -535.1512457 -0.878701E+00  0.648E+00    0.02       1.0  T
  83   -534.9233579  0.227888E+00  0.654E+00    0.03       1.0  T
  84   -534.9756624 -0.523045E-01  0.651E+00    0.02       1.0  T
  85   -534.8186822  0.156980E+00  0.655E+00    0.03       1.0  T
  86   -542.4211737 -0.760249E+01  0.526E+00    0.08       1.0  T
  87   -542.8483732 -0.427199E+00  0.520E+00    0.01       1.0  T
  88   -541.8057262  0.104265E+01  0.533E+00    0.03       1.0  T
  89   -541.7356005  0.701257E-01  0.533E+00    0.01       1.0  T
  90   -542.1159646 -0.380364E+00  0.532E+00    0.07       1.0  T
  91   -542.0597856  0.561790E-01  0.532E+00    0.07       1.0  T
  92   -542.1356803 -0.758948E-01  0.531E+00    0.01       1.0  T
  93   -541.7321358  0.403544E+00  0.529E+00    0.04       1.0  T
  94   -541.2461699  0.485966E+00  0.531E+00    0.10       1.0  T
  95   -541.6520752 -0.405905E+00  0.529E+00    0.13       1.0  T
  96   -541.6555897 -0.351454E-02  0.529E+00    0.13       1.0  T
  97   -541.2441773  0.411412E+00  0.536E+00    0.01       1.0  T
  98   -541.4320690 -0.187892E+00  0.532E+00    0.00       1.0  T
  99   -541.3072641  0.124805E+00  0.532E+00    0.01       1.0  T
 100   -537.3696274  0.393764E+01  0.559E+00    0.01       1.0  T
 101   -537.3718317 -0.220431E-02  0.559E+00    0.01       1.0  T
 102   -536.9721307  0.399701E+00  0.561E+00    0.01       1.0  T
 103   -537.1338527 -0.161722E+00  0.561E+00    0.00       1.0  T
 104   -538.5507220 -0.141687E+01  0.588E+00    0.05       1.0  T
 105   -538.3182343  0.232488E+00  0.592E+00    0.03       1.0  T
 106   -539.8961866 -0.157795E+01  0.559E+00    0.01       1.0  T
 107   -540.6312511 -0.735065E+00  0.554E+00    0.03       1.0  T
 108   -541.5449509 -0.913700E+00  0.559E+00    0.07       1.0  T
 109   -541.5438350  0.111586E-02  0.560E+00    0.07       1.0  T
 110   -541.4403692  0.103466E+00  0.564E+00    0.05       1.0  T
 111   -541.6288725 -0.188503E+00  0.559E+00    0.06       1.0  T
 112   -541.6405694 -0.116969E-01  0.558E+00    0.06       1.0  T
 113   -541.6540674 -0.134979E-01  0.558E+00    0.06       1.0  T
 114   -541.3988602  0.255207E+00  0.563E+00    0.09       1.0  T
 115   -541.0137634  0.385097E+00  0.574E+00    0.01       1.0  T
 116   -541.4681739 -0.454410E+00  0.577E+00    0.06       1.0  T
 117   -540.9905753  0.477599E+00  0.589E+00    0.06       1.0  T
 118   -541.0149267 -0.243514E-01  0.588E+00    0.06       1.0  T
 119   -539.3077104  0.170722E+01  0.597E+00    0.00       1.0  T
 120   -540.3983171 -0.109061E+01  0.595E+00    0.03       1.0  T
 121   -539.7505119  0.647805E+00  0.599E+00    0.01       1.0  T
 122   -539.9922273 -0.241715E+00  0.626E+00    0.01       1.0  T
 123   -539.6425850  0.349642E+00  0.624E+00    0.01       1.0  T
 124   -540.0653003 -0.422715E+00  0.632E+00    0.06       1.0  T
 125   -539.9890629  0.762374E-01  0.636E+00    0.07       1.0  T
 126   -539.6415631  0.347500E+00  0.642E+00    0.06       1.0  T
 127   -539.7950318 -0.153469E+00  0.638E+00    0.07       1.0  T
 128   -538.5537331  0.124130E+01  0.622E+00    0.03       1.0  T
 129   -537.2737587  0.127997E+01  0.635E+00    0.05       1.0  T
 130   -537.2302579  0.435008E-01  0.640E+00    0.08       1.0  T
 131   -537.2893008 -0.590429E-01  0.639E+00    0.06       1.0  T
 132   -537.1723103  0.116990E+00  0.644E+00    0.01       1.0  T
 133   -536.9528352  0.219475E+00  0.647E+00    0.03       1.0  T
 134   -536.8741499  0.786853E-01  0.661E+00    0.02       1.0  T
 135   -536.4090019  0.465148E+00  0.678E+00    0.01       1.0  T
 136   -536.0888058  0.320196E+00  0.680E+00    0.02       1.0  T
 137   -536.0433207  0.454851E-01  0.686E+00    0.01       1.0  T
 138   -535.1724184  0.870902E+00  0.677E+00    0.06       1.0  T
 139   -535.8448480 -0.672430E+00  0.677E+00    0.04       1.0  T
 140   -534.0525489  0.179230E+01  0.707E+00    0.00       1.0  T
 141   -531.4064210  0.264613E+01  0.741E+00    0.03       1.0  T
 142   -534.0621625 -0.265574E+01  0.724E+00    0.03       1.0  T
 143   -533.6151566  0.447006E+00  0.747E+00    0.05       1.0  T
 144   -533.5687184  0.464382E-01  0.740E+00    0.02       1.0  T
 145   -533.6705599 -0.101841E+00  0.742E+00    0.03       1.0  T
 146   -533.5714350  0.991248E-01  0.747E+00    0.03       1.0  T
 147   -533.5713981  0.369200E-04  0.747E+00    0.03       1.0  T
 148   -535.7966071 -0.222521E+01  0.726E+00    0.03       1.0  T
 149   -534.8791404  0.917467E+00  0.748E+00    0.03       1.0  T
 150   -534.8276220  0.515184E-01  0.758E+00    0.04       1.0  T
 151   -535.3409811 -0.513359E+00  0.755E+00    0.00       1.0  T
 152   -535.0202849  0.320696E+00  0.764E+00    0.03       1.0  T
 153   -535.0610442 -0.407594E-01  0.760E+00    0.02       1.0  T
 154   -535.2000218 -0.138978E+00  0.752E+00    0.01       1.0  T
 155   -535.2023539 -0.233208E-02  0.748E+00    0.01       1.0  T
 156   -535.3320752 -0.129721E+00  0.740E+00    0.00       1.0  T
 157   -535.7100015 -0.377926E+00  0.724E+00    0.02       1.0  T
 158   -535.5101392  0.199862E+00  0.723E+00    0.00       1.0  T
 159   -535.4995728  0.105665E-01  0.719E+00    0.01       1.0  T
 160   -535.7117662 -0.212193E+00  0.708E+00    0.00       1.0  T
 161   -535.6705359  0.412302E-01  0.704E+00    0.01       1.0  T
 162   -536.0997626 -0.429227E+00  0.695E+00    0.02       1.0  T
 163   -535.3909387  0.708824E+00  0.711E+00    0.03       1.0  T
 164   -538.9939209 -0.360298E+01  0.697E+00    0.01       1.0  T
 165   -538.2932820  0.700639E+00  0.703E+00    0.01       1.0  T
 166   -538.9917229 -0.698441E+00  0.682E+00    0.02       1.0  T
 167   -539.1290918 -0.137369E+00  0.680E+00    0.01       1.0  T
 168   -539.1070753  0.220165E-01  0.681E+00    0.01       1.0  T
 169   -539.1182212 -0.111459E-01  0.681E+00    0.01       1.0  T
 170   -539.5654708 -0.447250E+00  0.676E+00    0.01       1.0  T
 171   -539.3780053  0.187465E+00  0.676E+00    0.00       1.0  T
 172   -539.3696161  0.838917E-02  0.680E+00    0.00       1.0  T
 173   -539.4879914 -0.118375E+00  0.678E+00    0.00       1.0  T
 174   -539.0309157  0.457076E+00  0.679E+00    0.01       1.0  T
 175   -538.9129237  0.117992E+00  0.683E+00    0.02       1.0  T
 176   -538.8869347  0.259891E-01  0.685E+00    0.02       1.0  T
 177   -538.8645658  0.223689E-01  0.683E+00    0.01       1.0  T
 178   -538.9734997 -0.108934E+00  0.682E+00    0.01       1.0  T
 179   -539.8101668 -0.836667E+00  0.667E+00    0.00       1.0  T
 180   -541.6031573 -0.179299E+01  0.606E+00    0.01       1.0  T
 181   -548.4151377 -0.681198E+01  0.477E+00    0.00       1.0  T
 182   -548.7718629 -0.356725E+00  0.470E+00    0.01       1.0  T
 183   -544.6911802  0.408068E+01  0.547E+00    0.02       1.0  T
 184   -550.9515780 -0.626040E+01  0.407E+00    0.00       1.0  T
 185   -541.7570754  0.919450E+01  0.583E+00    0.06       1.0  T
 186   -551.2389809 -0.948191E+01  0.405E+00    0.01       1.0  T
 187   -547.5979966  0.364098E+01  0.504E+00    0.01       1.0  T
 188   -550.6715297 -0.307353E+01  0.414E+00    0.00       1.0  T
 189   -544.8749814  0.579655E+01  0.537E+00    0.01       1.0  T
 190   -551.2521993 -0.637722E+01  0.410E+00    0.03       1.0  T
 191   -549.0211808  0.223102E+01  0.456E+00    0.00       1.0  T
 192   -543.3679225  0.565326E+01  0.578E+00    0.02       1.0  T
 193   -550.7535198 -0.738560E+01  0.394E+00    0.01       1.0  T
 194   -549.6215108  0.113201E+01  0.464E+00    0.01       1.0  T
 195   -540.5380876  0.908342E+01  0.594E+00    0.02       1.0  T
 196   -542.7112611 -0.217317E+01  0.560E+00    0.03       1.0  T
 197   -552.0664789 -0.935522E+01  0.343E+00    0.01       1.0  T
 198   -553.1318355 -0.106536E+01  0.249E+00    0.04       1.0  T
 199   -553.2032188 -0.713832E-01  0.249E+00    0.02       1.0  T
 200   -552.7695552  0.433664E+00  0.273E+00    0.04       1.0  T
 201   -552.6532705  0.116285E+00  0.277E+00    0.03       1.0  T
 202   -553.4443353 -0.791065E+00  0.200E+00    0.00       1.0  T
 203   -553.8769529 -0.432618E+00  0.158E+00    0.04       1.0  T
 204   -553.9946582 -0.117705E+00  0.138E+00    0.07       1.0  T
 205   -554.0299438 -0.352856E-01  0.130E+00    0.09       1.0  T
 206   -554.0399148 -0.997092E-02  0.128E+00    0.10       1.0  T
 207   -554.0714080 -0.314932E-01  0.123E+00    0.09       1.0  T
 208   -553.9767575  0.946505E-01  0.128E+00    0.03       1.0  T
 209   -554.2082540 -0.231497E+00  0.926E-01    0.09       1.0  T
 210   -554.2453097 -0.370557E-01  0.838E-01    0.16       1.0  T
 211   -554.2593605 -0.140507E-01  0.792E-01    0.17       1.0  T
 212   -554.2627032 -0.334274E-02  0.770E-01    0.15       1.0  T
 213   -554.2647430 -0.203978E-02  0.754E-01    0.14       1.0  T
 214   -554.2333915  0.313515E-01  0.794E-01    0.09       1.0  T
 215   -554.2601543 -0.267628E-01  0.726E-01    0.10       1.0  T
 216   -554.2605243 -0.369948E-03  0.728E-01    0.10       1.0  T
 217   -553.5474575  0.713067E+00  0.168E+00    0.03       1.0  T
 218   -547.1283349  0.641912E+01  0.443E+00    0.02       1.0  T
 219   -551.7914762 -0.466314E+01  0.283E+00    0.01       1.0  T
 220   -542.8321025  0.895937E+01  0.512E+00    0.02       1.0  T
 221   -552.8228670 -0.999076E+01  0.220E+00    0.07       1.0  T
 222   -545.7289761  0.709389E+01  0.469E+00    0.01       1.0  T
 223   -551.2440243 -0.551505E+01  0.308E+00    0.03       1.0  T
 224   -549.8467856  0.139724E+01  0.362E+00    0.01       1.0  T
 225   -546.8777793  0.296901E+01  0.450E+00    0.04       1.0  T
 226   -553.1323598 -0.625458E+01  0.201E+00    0.00       1.0  T
 227   -553.9027681 -0.770408E+00  0.131E+00    0.02       1.0  T
 228   -553.9202482 -0.174801E-01  0.128E+00    0.02       1.0  T
 229   -552.1661200  0.175413E+01  0.266E+00    0.01       1.0  T
 230   -551.1252253  0.104089E+01  0.314E+00    0.02       1.0  T
 231   -546.9640884  0.416114E+01  0.453E+00    0.10       1.0  T
 232   -553.4177382 -0.645365E+01  0.183E+00    0.01       1.0  T
 233   -553.1435400  0.274198E+00  0.206E+00    0.02       1.0  T
 234   -554.2294101 -0.108587E+01  0.851E-01    0.07       1.0  T
 235   -554.2438973 -0.144872E-01  0.789E-01    0.07       1.0  T
 236   -554.2413308  0.256647E-02  0.798E-01    0.06       1.0  T
 237   -554.2220161  0.193147E-01  0.821E-01    0.05       1.0  T
 238   -554.2141547  0.786146E-02  0.823E-01    0.05       1.0  T
 239   -554.2452728 -0.311181E-01  0.770E-01    0.07       1.0  T
 240   -554.2158981  0.293747E-01  0.824E-01    0.05       1.0  T
 241   -554.2082682  0.762986E-02  0.881E-01    0.06       1.0  T
 242   -553.9883220  0.219946E+00  0.128E+00    0.01       1.0  T
 243   -554.2380773 -0.249755E+00  0.876E-01    0.07       1.0  T
 244   -554.1419111  0.961662E-01  0.102E+00    0.04       1.0  T
 245   -554.1785960 -0.366849E-01  0.972E-01    0.05       1.0  T
 246   -554.1901591 -0.115630E-01  0.942E-01    0.05       1.0  T
 247   -554.1833896  0.676947E-02  0.938E-01    0.05       1.0  T
 248   -554.1279592  0.554304E-01  0.105E+00    0.03       1.0  T
 249   -554.1586428 -0.306836E-01  0.977E-01    0.04       1.0  T
 250   -554.1426253  0.160175E-01  0.973E-01    0.03       1.0  T

   *** convergence criteria cannot be satisfied within 250 iterations ***

         #    Occupation            Energy/Eh            Energy/eV
      -------------------------------------------------------------
         1        2.0000           -0.6919315             -18.8284
       ...           ...                  ...                  ...
       503        1.9967           -0.3465298              -9.4296
       504        1.9908           -0.3455574              -9.4031
       505        1.9874           -0.3452532              -9.3948
       506        1.9865           -0.3451840              -9.3929
       507        1.9615           -0.3441781              -9.3656
       508        1.6837           -0.3420330              -9.3072
       509        1.4340           -0.3413277              -9.2880 (HOMO)
       510        0.8033           -0.3400657              -9.2537 (LUMO)
       511        0.1577           -0.3381093              -9.2004
       512        0.0003           -0.3322201              -9.0402
       513        0.0002           -0.3317025              -9.0261
       514        0.0001           -0.3311909              -9.0122
       ...           ...                  ...                  ...
       978                          1.4340836              39.0234
      -------------------------------------------------------------
                  HL-Gap            0.0012619 Eh            0.0343 eV
             Fermi-level           -0.3404444 Eh           -9.2640 eV

 SCC (total)                   0 d,  0 h,  1 min, 26.996 sec
 SCC setup                      ...        0 min,  0.020 sec (  0.024%)
 Dispersion                     ...        0 min,  0.042 sec (  0.048%)
 classical contributions        ...        0 min,  0.005 sec (  0.006%)
 integral evaluation            ...        0 min,  0.336 sec (  0.386%)
 iterations                     ...        1 min, 25.845 sec ( 98.676%)
 molecular gradient             ...        0 min,  0.702 sec (  0.807%)
 printout                       ...        0 min,  0.046 sec (  0.053%)

########################################################################
[ERROR] Program stopped due to fatal error
-3- Single point calculation terminated
-2- xtb_calculator_singlepoint: Electronic structure method terminated
-1- scf: Self consistent charge iterator did not converge
########################################################################
