 Entering Gaussian System
 *********************************************
 Gaussian 98:
 frequency output generated by the xtb code
 *********************************************
                         Standard orientation:
 --------------------------------------------------------------------
  Center     Atomic     Atomic              Coordinates (Angstroms)
  Number     Number      Type              X           Y           Z
 --------------------------------------------------------------------
    1         28             0       11.937671   -0.004370   -0.011813
    2          6             0       14.434261   -3.416174    0.094870
    3          6             0       15.386179   -2.455844    0.099500
    4          6             0       14.697804   -1.201441    0.043919
    5          6             0       15.364531    0.027007    0.001381
    6          6             0       14.675860    1.243101   -0.043307
    7          6             0       15.341660    2.510015   -0.088995
    8          6             0       14.372427    3.452891   -0.085631
    9          6             0       13.122635    2.754911   -0.039491
   10          7             0       13.323542    1.400265   -0.022869
   11          6             0       11.902692    3.397609    0.003922
   12          6             0       10.696011    2.729926    0.038523
   13          6             0        9.428602    3.400764    0.084172
   14          6             0        8.482063    2.437522    0.071727
   15          6             0        9.175328    1.182161    0.019362
   16          7             0       10.527181    1.374740    0.008681
   17          6             0        8.528283   -0.035545   -0.034592
   18          6             0        9.198055   -1.241342   -0.077412
   19          6             0        8.528567   -2.509310   -0.135127
   20          6             0        9.492534   -3.455185   -0.129419
   21          6             0       10.746740   -2.761157   -0.068648
   22          7             0       10.552888   -1.409187   -0.046714
   23          6             0       11.964905   -3.406442   -0.016180
   24          6             0       13.172381   -2.741303    0.036258
   25          7             0       13.348757   -1.383290    0.014875
   26          1             0       14.552618   -4.481787    0.126087
   27          1             0       16.453051   -2.561223    0.135117
   28          1             0       16.406686    2.634831   -0.116910
   29          1             0       14.471564    4.520648   -0.110641
   30          1             0       11.893113    4.476833    0.009331
   31          1             0        9.307786    4.466235    0.118620
   32          1             0        7.414311    2.539479    0.093951
   33          1             0        7.449219   -0.045344   -0.042502
   34          1             0        7.463283   -2.630829   -0.172391
   35          1             0        9.391630   -4.522808   -0.161140
   36          1             0       11.975158   -4.485672   -0.016472
   37         28             0       43.913278    0.025787   -0.008146
   38          6             0       41.425899    3.374801    0.688280
   39          6             0       40.471102    2.432550    0.518326
   40          6             0       41.156108    1.204308    0.248731
   41          6             0       40.486084    0.003087   -0.003043
   42          6             0       41.171292   -1.190026   -0.251868
   43          6             0       40.501618   -2.428844   -0.511391
   44          6             0       41.468120   -3.360097   -0.675727
   45          6             0       42.720109   -2.683037   -0.516345
   46          7             0       42.523229   -1.351452   -0.263801
   47          6             0       43.938418   -3.325282   -0.596417
   48          6             0       45.147298   -2.676285   -0.453535
   49          6             0       46.412934   -3.346624   -0.538658
   50          6             0       47.362255   -2.398862   -0.382386
   51          6             0       46.672436   -1.153617   -0.201245
   52          7             0       45.319981   -1.338284   -0.239411
   53          6             0       47.322937    0.051539   -0.031573
   54          6             0       46.656709    1.246176    0.150928
   55          6             0       47.330129    2.500771    0.329223
   56          6             0       46.368991    3.432609    0.507545
   57          6             0       45.112551    2.743626    0.436247
   58          7             0       45.302322    1.409854    0.210612
   59          6             0       43.895994    3.373757    0.597277
   60          6             0       42.686149    2.715280    0.520791
   61          7             0       42.505885    1.383004    0.259522
   62          1             0       41.310539    4.418983    0.904952
   63          1             0       39.404316    2.534511    0.565114
   64          1             0       39.436138   -2.544712   -0.555522
   65          1             0       41.365787   -4.407189   -0.884553
   66          1             0       43.944801   -4.388404   -0.782355
   67          1             0       46.530737   -4.400906   -0.698716
   68          1             0       48.429808   -2.505149   -0.385794
   69          1             0       48.402009    0.059867   -0.040125
   70          1             0       48.395862    2.623453    0.316887
   71          1             0       46.473144    4.487449    0.673334
   72          1             0       43.888956    4.435439    0.791253
   73          6             0       16.761011    0.038976    0.004620
   74          6             0       17.980463    0.045782    0.005873
   75          6             0       19.316865    0.050091    0.008440
   76          6             0       20.540813    0.054820    0.009505
   77          6             0       21.877079    0.052462    0.009400
   78          6             0       23.096713    0.051181    0.005815
   79          6             0       32.753671   -0.007804   -0.007241
   80          6             0       33.973244   -0.011098   -0.007464
   81          6             0       35.309595   -0.011954   -0.003861
   82          6             0       36.533519   -0.010118   -0.007420
   83          6             0       37.870019   -0.009195   -0.003524
   84          6             0       39.089453   -0.005864   -0.003340
   85         28             0       27.925131    0.020734   -0.010143
   86          6             0       25.435123   -3.371031    0.435134
   87          6             0       24.479680   -2.419146    0.335908
   88          6             0       25.164163   -1.173679    0.162006
   89          6             0       24.492557    0.042690    0.001969
   90          6             0       25.178575    1.250065   -0.164173
   91          6             0       24.508748    2.503841   -0.335463
   92          6             0       25.475502    3.442876   -0.446676
   93          6             0       26.726865    2.755094   -0.341978
   94          7             0       26.530091    1.410020   -0.174446
   95          6             0       27.945445    3.398965   -0.390627
   96          6             0       29.156181    2.746381   -0.289627
   97          6             0       30.415600    3.426043   -0.332458
   98          6             0       31.370996    2.475225   -0.223235
   99          6             0       30.686296    1.222396   -0.115623
  100          7             0       29.336821    1.395764   -0.151114
  101          6             0       31.357716    0.000075   -0.010079
  102          6             0       30.671558   -1.214334    0.091583
  103          6             0       31.341177   -2.475793    0.193324
  104          6             0       30.374404   -3.415744    0.296412
  105          6             0       29.123249   -2.720779    0.256798
  106          7             0       29.320077   -1.371777    0.124708
  107          6             0       27.904884   -3.358749    0.359143
  108          6             0       26.694327   -2.699182    0.321566
  109          7             0       26.513561   -1.351076    0.160357
  110          1             0       25.320671   -4.428784    0.571336
  111          1             0       23.412920   -2.524978    0.372612
  112          1             0       23.443134    2.623326   -0.362558
  113          1             0       25.373598    4.501623   -0.585011
  114          1             0       27.951926    4.471364   -0.512611
  115          1             0       30.530160    4.487743   -0.433426
  116          1             0       32.437868    2.585937   -0.215356
  117          1             0       32.406678   -2.599108    0.186015
  118          1             0       30.476205   -4.479187    0.392138
  119          1             0       27.898451   -4.431721    0.475970
 --------------------------------------------------------------------
     1 basis functions        1 primitive gaussians
     1 alpha electrons        1 beta electrons

 Harmonic frequencies (cm**-1), IR intensities (km*mol⁻¹),
 Raman scattering activities (A**4/amu), Raman depolarization ratios,
 reduced masses (AMU), force constants (mDyne/A) and normal coordinates:
                      1                      2                      3
                        a                      a                      a 
 Frequencies --    -5.4396                -3.9348                -2.4718
 Red. masses --    11.5787                12.4056                17.3141
 Frc consts  --     0.0000                 0.0000                 0.0000
 IR Inten    --    37.0311                 0.5140                 4.2027
 Raman Activ --     0.0000                 0.0000                 0.0000
 Depolar     --     0.0000                 0.0000                 0.0000
 Atom AN      X      Y      Z        X      Y      Z        X      Y      Z
   1  28     0.00   0.01   0.02     0.00   0.01   0.08    -0.00   0.03   0.14
   2   6    -0.00   0.00   0.02    -0.00   0.01   0.27    -0.01   0.00  -0.04
   3   6    -0.00   0.00   0.01    -0.00   0.01   0.20    -0.01   0.00  -0.03
   4   6    -0.00   0.00   0.01    -0.00   0.01   0.12    -0.00   0.00   0.01
   5   6     0.00   0.00   0.01    -0.00   0.00   0.09     0.00   0.00   0.01
   6   6     0.00   0.00   0.01    -0.00   0.01   0.12     0.00   0.00   0.01
   7   6     0.00   0.00   0.01     0.00   0.01   0.19     0.01   0.00  -0.02
   8   6     0.00   0.00   0.02     0.00   0.01   0.25     0.01   0.00  -0.03
   9   6     0.00   0.01   0.02     0.00   0.01   0.19     0.01   0.01  -0.00
  10   7     0.00   0.01   0.01    -0.00   0.01   0.13     0.00   0.01   0.02
  11   6     0.00   0.01   0.02    -0.00   0.00   0.18     0.01   0.01   0.02
  12   6     0.00   0.01   0.01    -0.00   0.00   0.04     0.01   0.02   0.08
  13   6     0.00   0.01   0.01    -0.01  -0.00  -0.07     0.01   0.02   0.13
  14   6     0.00   0.01  -0.00    -0.01   0.00  -0.24     0.01   0.02   0.20
  15   6     0.00   0.01  -0.00    -0.00   0.00  -0.22     0.00   0.02   0.18
  16   7     0.00   0.01   0.00    -0.00   0.00  -0.06     0.01   0.02   0.12
  17   6     0.00   0.01  -0.01     0.00   0.00  -0.33    -0.00   0.02   0.22
  18   6     0.00   0.01  -0.01     0.01   0.00  -0.22    -0.01   0.02   0.18
  19   6    -0.00   0.01  -0.01     0.01   0.00  -0.23    -0.01   0.02   0.19
  20   6    -0.00   0.01   0.00     0.01  -0.00  -0.05    -0.02   0.02   0.12
  21   6    -0.00   0.01   0.01     0.00   0.00   0.06    -0.01   0.02   0.07
  22   7    -0.00   0.01   0.00     0.00   0.00  -0.05    -0.01   0.02   0.11
  23   6    -0.00   0.01   0.02     0.00   0.00   0.20    -0.01   0.01   0.01
  24   6    -0.00   0.01   0.02    -0.00   0.01   0.21    -0.01   0.01  -0.01
  25   7    -0.00   0.01   0.01    -0.00   0.01   0.14    -0.00   0.01   0.02
  26   1    -0.00   0.00   0.01    -0.00   0.00   0.10    -0.00   0.00  -0.02
  27   1    -0.00   0.00   0.00    -0.00   0.00   0.06    -0.00  -0.00  -0.01
  28   1     0.00   0.00   0.00     0.00   0.00   0.06     0.00  -0.00  -0.01
  29   1     0.00   0.00   0.01     0.00   0.00   0.09     0.00   0.00  -0.02
  30   1     0.00   0.00   0.01    -0.00   0.00   0.07     0.00   0.00  -0.00
  31   1     0.00   0.00   0.00    -0.00  -0.00  -0.00     0.01   0.01   0.03
  32   1     0.00   0.00  -0.00    -0.00   0.00  -0.11     0.00   0.01   0.07
  33   1     0.00   0.00  -0.01     0.00   0.00  -0.13    -0.00   0.01   0.08
  34   1     0.00   0.00  -0.00     0.01  -0.00  -0.10    -0.00   0.01   0.07
  35   1    -0.00   0.00   0.00     0.00  -0.00   0.00    -0.01   0.01   0.03
  36   1    -0.00   0.00   0.01    -0.00   0.00   0.08    -0.00   0.00  -0.01
  37  28    -0.00   0.01   0.05    -0.00   0.01   0.04    -0.00   0.03   0.15
  38   6    -0.01  -0.05   0.25    -0.00   0.01  -0.01    -0.01   0.01   0.02
  39   6    -0.00  -0.04   0.18    -0.00   0.01  -0.01    -0.01   0.01   0.01
  40   6    -0.00  -0.02   0.11    -0.00   0.00   0.00    -0.01   0.01   0.03
  41   6     0.00  -0.02   0.08    -0.00   0.00   0.00    -0.00   0.01   0.03
  42   6     0.00  -0.02   0.11     0.00   0.01  -0.00     0.00   0.01   0.03
  43   6     0.01  -0.04   0.19     0.00   0.01  -0.01     0.01   0.01   0.02
  44   6     0.01  -0.05   0.26     0.00   0.01  -0.02     0.01   0.01   0.02
  45   6     0.01  -0.04   0.20     0.00   0.01  -0.01     0.01   0.01   0.04
  46   7     0.00  -0.02   0.13     0.00   0.01   0.00     0.01   0.01   0.05
  47   6     0.01  -0.03   0.19     0.00   0.01  -0.00     0.01   0.02   0.05
  48   6     0.01   0.00   0.04     0.00   0.00   0.02     0.01   0.02   0.08
  49   6     0.02   0.03  -0.07     0.00   0.00   0.03     0.01   0.02   0.10
  50   6     0.01   0.07  -0.26     0.00  -0.00   0.06     0.01   0.01   0.13
  51   6     0.01   0.06  -0.25     0.00  -0.00   0.05     0.00   0.01   0.13
  52   7     0.01   0.02  -0.07     0.00   0.00   0.03     0.01   0.01   0.10
  53   6    -0.00   0.08  -0.36     0.00  -0.00   0.07     0.00   0.01   0.14
  54   6    -0.01   0.06  -0.25     0.00  -0.00   0.06    -0.00   0.01   0.12
  55   6    -0.02   0.06  -0.26    -0.00  -0.00   0.06    -0.01   0.01   0.13
  56   6    -0.02   0.03  -0.07    -0.00   0.00   0.04    -0.01   0.02   0.10
  57   6    -0.01   0.00   0.04    -0.00   0.00   0.02    -0.01   0.02   0.08
  58   7    -0.01   0.02  -0.07    -0.00   0.00   0.04    -0.01   0.01   0.10
  59   6    -0.01  -0.03   0.19    -0.00   0.01   0.01    -0.01   0.02   0.05
  60   6    -0.00  -0.04   0.20    -0.00   0.01   0.00    -0.01   0.01   0.03
  61   7    -0.00  -0.02   0.12    -0.00   0.01   0.01    -0.01   0.01   0.05
  62   1    -0.00  -0.02   0.09    -0.00   0.00  -0.00    -0.01   0.00   0.00
  63   1    -0.00  -0.01   0.06    -0.00   0.00  -0.00    -0.00   0.00   0.00
  64   1     0.00  -0.01   0.06     0.00   0.00  -0.00     0.00   0.00   0.00
  65   1     0.00  -0.02   0.10     0.00   0.00  -0.01     0.01   0.00   0.00
  66   1     0.00  -0.01   0.08     0.00   0.00  -0.00     0.00   0.00   0.01
  67   1     0.01   0.01  -0.00     0.00   0.00   0.01     0.00   0.00   0.03
  68   1     0.00   0.03  -0.11     0.00  -0.00   0.02     0.00   0.00   0.05
  69   1    -0.00   0.03  -0.15     0.00  -0.00   0.03     0.00   0.00   0.05
  70   1    -0.01   0.03  -0.11     0.00  -0.00   0.02    -0.00   0.00   0.05
  71   1    -0.01   0.01  -0.00    -0.00   0.00   0.01    -0.00   0.00   0.03
  72   1    -0.00  -0.01   0.08    -0.00   0.00  -0.00    -0.01   0.01   0.01
  73   6     0.00   0.00   0.01    -0.00   0.00   0.07     0.00  -0.00   0.00
  74   6     0.00   0.00   0.00     0.00   0.00   0.05     0.00  -0.00  -0.00
  75   6     0.00   0.00  -0.00     0.00   0.00   0.03     0.00  -0.01  -0.01
  76   6     0.00   0.00  -0.01     0.00  -0.00   0.01     0.00  -0.01  -0.03
  77   6     0.00   0.00  -0.01     0.00  -0.00  -0.00     0.00  -0.01  -0.04
  78   6     0.00  -0.00  -0.02     0.00  -0.00  -0.02     0.00  -0.02  -0.06
  79   6     0.00  -0.01  -0.02    -0.00  -0.00  -0.03    -0.00  -0.01  -0.06
  80   6     0.00  -0.01  -0.01    -0.00  -0.00  -0.02    -0.00  -0.01  -0.04
  81   6     0.00  -0.01   0.00    -0.00  -0.00  -0.01    -0.00  -0.01  -0.02
  82   6     0.00  -0.01   0.02    -0.00   0.00  -0.01    -0.00  -0.00  -0.01
  83   6     0.00  -0.01   0.03    -0.00   0.00  -0.00    -0.00  -0.00   0.01
  84   6     0.00  -0.01   0.06    -0.00   0.00  -0.00    -0.00   0.00   0.02
  85  28     0.00  -0.01  -0.08    -0.00  -0.02  -0.13     0.00  -0.05  -0.27
  86   6    -0.00  -0.01  -0.04     0.00  -0.01  -0.07     0.00  -0.03  -0.14
  87   6    -0.00  -0.00  -0.03     0.00  -0.01  -0.05     0.00  -0.02  -0.11
  88   6    -0.00  -0.00  -0.03     0.00  -0.01  -0.05     0.00  -0.02  -0.10
  89   6     0.00  -0.00  -0.02    -0.00  -0.01  -0.03     0.00  -0.02  -0.08
  90   6     0.00  -0.00  -0.03    -0.00  -0.01  -0.04    -0.00  -0.02  -0.10
  91   6     0.00  -0.00  -0.03    -0.00  -0.01  -0.05    -0.00  -0.02  -0.11
  92   6     0.00  -0.00  -0.04    -0.00  -0.01  -0.06    -0.00  -0.03  -0.14
  93   6     0.00  -0.01  -0.04    -0.00  -0.01  -0.07    -0.00  -0.03  -0.15
  94   7     0.00  -0.01  -0.04    -0.00  -0.01  -0.06    -0.00  -0.02  -0.13
  95   6     0.00  -0.01  -0.04    -0.00  -0.01  -0.08    -0.00  -0.03  -0.16
  96   6     0.00  -0.01  -0.04    -0.00  -0.01  -0.07    -0.00  -0.02  -0.14
  97   6     0.00  -0.01  -0.04    -0.00  -0.01  -0.07    -0.00  -0.02  -0.14
  98   6     0.00  -0.01  -0.03    -0.00  -0.01  -0.05    -0.00  -0.02  -0.11
  99   6     0.00  -0.01  -0.03    -0.00  -0.01  -0.05    -0.00  -0.02  -0.10
 100   7     0.00  -0.01  -0.04    -0.00  -0.01  -0.06    -0.00  -0.02  -0.13
 101   6     0.00  -0.01  -0.02    -0.00  -0.00  -0.04     0.00  -0.02  -0.08
 102   6    -0.00  -0.01  -0.03     0.00  -0.01  -0.05     0.00  -0.02  -0.10
 103   6    -0.00  -0.01  -0.03     0.00  -0.01  -0.05     0.00  -0.02  -0.11
 104   6    -0.00  -0.01  -0.04     0.00  -0.01  -0.07     0.00  -0.02  -0.14
 105   6    -0.00  -0.01  -0.04     0.00  -0.01  -0.07     0.00  -0.02  -0.14
 106   7    -0.00  -0.01  -0.04     0.00  -0.01  -0.06     0.00  -0.02  -0.13
 107   6    -0.00  -0.01  -0.05     0.00  -0.01  -0.08     0.00  -0.03  -0.16
 108   6    -0.00  -0.01  -0.04     0.00  -0.01  -0.07     0.00  -0.03  -0.14
 109   7    -0.00  -0.01  -0.04     0.00  -0.01  -0.06     0.00  -0.02  -0.13
 110   1    -0.00  -0.00  -0.01     0.00  -0.00  -0.02     0.00  -0.01  -0.04
 111   1    -0.00  -0.00  -0.01     0.00  -0.00  -0.01     0.00  -0.01  -0.03
 112   1     0.00  -0.00  -0.01    -0.00  -0.00  -0.01    -0.00  -0.01  -0.03
 113   1     0.00  -0.00  -0.01    -0.00  -0.00  -0.02    -0.00  -0.01  -0.04
 114   1     0.00  -0.00  -0.01    -0.00  -0.00  -0.02    -0.00  -0.01  -0.05
 115   1     0.00  -0.00  -0.01    -0.00  -0.00  -0.02    -0.00  -0.01  -0.04
 116   1     0.00  -0.00  -0.01    -0.00  -0.00  -0.01    -0.00  -0.01  -0.03
 117   1    -0.00  -0.00  -0.01     0.00  -0.00  -0.01     0.00  -0.00  -0.03
 118   1    -0.00  -0.00  -0.01     0.00  -0.00  -0.02     0.00  -0.01  -0.04
 119   1    -0.00  -0.00  -0.02     0.00  -0.00  -0.03     0.00  -0.01  -0.05
                      4                      5                      6
                        a                      a                      a 
 Frequencies --     2.1808                 3.2582                 4.1103
 Red. masses --    16.7276                11.2418                11.2333
 Frc consts  --     0.0000                 0.0000                 0.0000
 IR Inten    --     0.9966                 0.0044                 0.0725
 Raman Activ --     0.0000                 0.0000                 0.0000
 Depolar     --     0.0000                 0.0000                 0.0000
 Atom AN      X      Y      Z        X      Y      Z        X      Y      Z
   1  28     0.00  -0.15   0.03     0.00  -0.01   0.00    -0.00   0.00  -0.00
   2   6     0.07  -0.01  -0.00     0.00   0.01   0.18    -0.00   0.00   0.12
   3   6     0.05   0.01  -0.00     0.00   0.01   0.13    -0.00   0.00   0.08
   4   6     0.03  -0.01   0.00     0.00   0.00   0.06    -0.00   0.00   0.04
   5   6    -0.00   0.01   0.00     0.00   0.00  -0.00    -0.00  -0.00  -0.00
   6   6    -0.03  -0.01   0.01    -0.00  -0.00  -0.07     0.00  -0.00  -0.05
   7   6    -0.05   0.01   0.01    -0.00  -0.00  -0.14     0.00  -0.00  -0.09
   8   6    -0.07  -0.02   0.01    -0.00  -0.00  -0.20     0.00  -0.00  -0.13
   9   6    -0.06  -0.04   0.01    -0.00  -0.00  -0.16     0.00  -0.00  -0.10
  10   7    -0.03  -0.04   0.01    -0.00  -0.00  -0.09     0.00  -0.00  -0.06
  11   6    -0.07  -0.07   0.02    -0.00  -0.00  -0.19     0.00   0.00  -0.13
  12   6    -0.06  -0.09   0.02    -0.00  -0.00  -0.15     0.00   0.00  -0.10
  13   6    -0.07  -0.12   0.03    -0.00   0.00  -0.18     0.00   0.01  -0.13
  14   6    -0.05  -0.14   0.03    -0.00  -0.00  -0.12     0.00   0.01  -0.09
  15   6    -0.02  -0.13   0.02    -0.00  -0.00  -0.06     0.00   0.01  -0.04
  16   7    -0.03  -0.11   0.02    -0.00  -0.00  -0.08     0.00   0.00  -0.05
  17   6     0.00  -0.14   0.03    -0.00  -0.01   0.02    -0.00   0.00   0.01
  18   6     0.03  -0.13   0.02     0.00  -0.01   0.08    -0.00   0.00   0.05
  19   6     0.05  -0.14   0.02     0.00  -0.01   0.15    -0.00  -0.00   0.10
  20   6     0.07  -0.12   0.02     0.00  -0.01   0.20    -0.00  -0.00   0.13
  21   6     0.06  -0.09   0.01     0.00  -0.01   0.15    -0.00   0.00   0.10
  22   7     0.03  -0.10   0.02     0.00  -0.01   0.09    -0.00   0.00   0.06
  23   6     0.07  -0.07   0.01     0.00  -0.00   0.18    -0.00   0.00   0.12
  24   6     0.06  -0.04   0.00     0.00   0.00   0.14    -0.00   0.00   0.10
  25   7     0.03  -0.04   0.01     0.00  -0.00   0.08    -0.00   0.00   0.05
  26   1     0.03  -0.00  -0.00     0.00   0.00   0.07    -0.00   0.00   0.04
  27   1     0.02   0.01  -0.00     0.00   0.00   0.04    -0.00   0.00   0.02
  28   1    -0.02   0.01   0.00    -0.00  -0.00  -0.04     0.00  -0.00  -0.03
  29   1    -0.03  -0.00   0.00    -0.00  -0.00  -0.07     0.00  -0.00  -0.05
  30   1    -0.03  -0.02   0.01    -0.00  -0.00  -0.07     0.00   0.00  -0.05
  31   1    -0.03  -0.04   0.01    -0.00   0.00  -0.07     0.00   0.00  -0.05
  32   1    -0.02  -0.05   0.01    -0.00  -0.00  -0.04     0.00   0.00  -0.03
  33   1     0.00  -0.05   0.01    -0.00  -0.00   0.01    -0.00   0.00   0.00
  34   1     0.02  -0.05   0.01     0.00  -0.00   0.05    -0.00  -0.00   0.03
  35   1     0.03  -0.04   0.00     0.00  -0.00   0.07    -0.00  -0.00   0.05
  36   1     0.03  -0.02   0.00     0.00  -0.00   0.07    -0.00   0.00   0.05
  37  28     0.00  -0.15   0.04    -0.00  -0.01   0.00     0.00   0.00  -0.00
  38   6     0.07  -0.02   0.02     0.00  -0.04   0.20    -0.00   0.02  -0.10
  39   6     0.05   0.00   0.01     0.00  -0.03   0.14    -0.00   0.01  -0.07
  40   6     0.02  -0.01   0.01     0.00  -0.02   0.07    -0.00   0.01  -0.03
  41   6    -0.00   0.00   0.01     0.00  -0.00   0.00     0.00   0.00  -0.00
  42   6    -0.02  -0.01   0.02    -0.00   0.01  -0.07     0.00  -0.01   0.03
  43   6    -0.05  -0.00   0.03    -0.00   0.03  -0.14     0.00  -0.01   0.07
  44   6    -0.07  -0.02   0.04    -0.00   0.04  -0.19     0.00  -0.02   0.09
  45   6    -0.05  -0.05   0.04    -0.00   0.03  -0.16     0.00  -0.01   0.08
  46   7    -0.03  -0.05   0.03    -0.00   0.01  -0.08     0.00  -0.01   0.04
  47   6    -0.07  -0.07   0.04    -0.00   0.03  -0.20     0.00  -0.02   0.10
  48   6    -0.05  -0.09   0.03    -0.00   0.02  -0.16     0.00  -0.01   0.08
  49   6    -0.07  -0.12   0.02    -0.00   0.03  -0.20     0.00  -0.01   0.10
  50   6    -0.05  -0.13   0.01    -0.00   0.02  -0.15     0.00  -0.01   0.08
  51   6    -0.02  -0.12   0.00    -0.00   0.01  -0.07     0.00  -0.00   0.04
  52   7    -0.03  -0.10   0.02    -0.00   0.01  -0.09     0.00  -0.01   0.04
  53   6     0.00  -0.13  -0.01    -0.00  -0.00  -0.00     0.00   0.00   0.00
  54   6     0.02  -0.12  -0.00     0.00  -0.01   0.07    -0.00   0.01  -0.04
  55   6     0.05  -0.13  -0.01     0.00  -0.02   0.15    -0.00   0.01  -0.07
  56   6     0.07  -0.11   0.00     0.00  -0.03   0.20    -0.00   0.02  -0.10
  57   6     0.05  -0.09   0.01     0.00  -0.03   0.16    -0.00   0.02  -0.08
  58   7     0.03  -0.10   0.01     0.00  -0.02   0.09    -0.00   0.01  -0.04
  59   6     0.07  -0.07   0.02     0.00  -0.04   0.20    -0.00   0.02  -0.10
  60   6     0.05  -0.04   0.02     0.00  -0.03   0.16    -0.00   0.02  -0.08
  61   7     0.03  -0.04   0.02     0.00  -0.02   0.09    -0.00   0.01  -0.04
  62   1     0.03  -0.00   0.01     0.00  -0.02   0.08    -0.00   0.01  -0.04
  63   1     0.01   0.01   0.00     0.00  -0.01   0.04    -0.00   0.00  -0.02
  64   1    -0.01   0.01   0.01    -0.00   0.01  -0.04     0.00  -0.00   0.02
  65   1    -0.03  -0.01   0.01    -0.00   0.01  -0.07     0.00  -0.01   0.04
  66   1    -0.03  -0.02   0.01    -0.00   0.01  -0.07     0.00  -0.01   0.04
  67   1    -0.03  -0.04   0.01    -0.00   0.01  -0.08     0.00  -0.01   0.04
  68   1    -0.01  -0.04  -0.00    -0.00   0.01  -0.05     0.00  -0.00   0.02
  69   1     0.00  -0.04  -0.00    -0.00  -0.00  -0.00     0.00   0.00   0.00
  70   1     0.01  -0.04  -0.00     0.00  -0.01   0.04    -0.00   0.00  -0.02
  71   1     0.03  -0.03   0.00     0.00  -0.01   0.08    -0.00   0.01  -0.04
  72   1     0.03  -0.02   0.01     0.00  -0.01   0.08    -0.00   0.01  -0.04
  73   6    -0.00   0.03  -0.00     0.00   0.00  -0.00    -0.00  -0.00  -0.00
  74   6    -0.00   0.06  -0.01     0.00   0.00  -0.00    -0.00  -0.00  -0.00
  75   6    -0.00   0.08  -0.01     0.00   0.00  -0.00    -0.00  -0.00  -0.00
  76   6    -0.00   0.09  -0.01     0.00   0.01  -0.00    -0.00  -0.00  -0.00
  77   6    -0.00   0.10  -0.02     0.00   0.01  -0.00    -0.00  -0.00  -0.00
  78   6    -0.00   0.11  -0.02     0.00   0.01  -0.00    -0.00  -0.00  -0.00
  79   6    -0.00   0.10  -0.02     0.00   0.00   0.00     0.00  -0.00   0.00
  80   6    -0.00   0.10  -0.01     0.00   0.00   0.00     0.00  -0.00   0.00
  81   6    -0.00   0.09  -0.01     0.00   0.00   0.00     0.00  -0.00  -0.00
  82   6    -0.00   0.07  -0.00     0.00   0.00   0.00     0.00  -0.00  -0.00
  83   6    -0.00   0.05   0.00     0.00   0.00   0.00     0.00  -0.00  -0.00
  84   6    -0.00   0.03   0.01     0.00  -0.00   0.00     0.00  -0.00  -0.00
  85  28    -0.00   0.24  -0.06    -0.00   0.01  -0.00     0.00  -0.00   0.00
  86   6    -0.00   0.11  -0.03    -0.00   0.01   0.02     0.00  -0.03  -0.22
  87   6    -0.00   0.11  -0.03    -0.00   0.01   0.01     0.00  -0.03  -0.16
  88   6    -0.00   0.11  -0.03    -0.00   0.01   0.01    -0.00  -0.01  -0.08
  89   6    -0.00   0.11  -0.02     0.00   0.01  -0.00    -0.00  -0.00  -0.00
  90   6    -0.00   0.11  -0.02     0.00   0.00  -0.01    -0.00   0.01   0.08
  91   6     0.00   0.11  -0.02     0.00   0.00  -0.02     0.00   0.02   0.16
  92   6     0.00   0.11  -0.02     0.00   0.00  -0.02     0.00   0.03   0.22
  93   6     0.00   0.11  -0.02     0.00   0.00  -0.02    -0.00   0.02   0.18
  94   7    -0.00   0.12  -0.03     0.00   0.00  -0.01     0.00   0.01   0.10
  95   6     0.00   0.11  -0.02     0.00   0.00  -0.02     0.00   0.02   0.22
  96   6     0.00   0.11  -0.02     0.00   0.00  -0.01     0.00   0.02   0.18
  97   6     0.00   0.11  -0.02     0.00   0.00  -0.01     0.00   0.02   0.23
  98   6     0.00   0.11  -0.02     0.00   0.00  -0.01    -0.00   0.01   0.16
  99   6     0.00   0.11  -0.02     0.00   0.00  -0.00     0.00   0.01   0.08
 100   7     0.00   0.12  -0.03     0.00   0.00  -0.01     0.00   0.01   0.10
 101   6    -0.00   0.11  -0.02     0.00   0.00   0.00     0.00  -0.00   0.00
 102   6    -0.00   0.11  -0.02    -0.00   0.00   0.00     0.00  -0.01  -0.08
 103   6    -0.00   0.11  -0.03    -0.00   0.00   0.01     0.00  -0.02  -0.16
 104   6    -0.00   0.11  -0.03    -0.00   0.00   0.01     0.00  -0.02  -0.22
 105   6    -0.00   0.11  -0.03    -0.00   0.01   0.01     0.00  -0.02  -0.18
 106   7    -0.00   0.11  -0.03    -0.00   0.00   0.00     0.00  -0.01  -0.10
 107   6    -0.00   0.11  -0.04    -0.00   0.01   0.01     0.00  -0.03  -0.22
 108   6    -0.00   0.11  -0.03    -0.00   0.01   0.01     0.00  -0.02  -0.18
 109   7    -0.00   0.12  -0.03    -0.00   0.01   0.01     0.00  -0.01  -0.10
 110   1    -0.00   0.03  -0.01    -0.00   0.00   0.01     0.00  -0.01  -0.08
 111   1    -0.00   0.03  -0.01    -0.00   0.00   0.00     0.00  -0.01  -0.05
 112   1     0.00   0.03  -0.01     0.00   0.00  -0.01     0.00   0.01   0.05
 113   1     0.00   0.03  -0.01     0.00   0.00  -0.01     0.00   0.01   0.09
 114   1     0.00   0.03  -0.01     0.00   0.00  -0.01     0.00   0.01   0.09
 115   1     0.00   0.03  -0.01     0.00   0.00  -0.00    -0.00   0.01   0.09
 116   1     0.00   0.03  -0.00     0.00   0.00  -0.00    -0.00   0.00   0.05
 117   1    -0.00   0.03  -0.01    -0.00   0.00   0.00     0.00  -0.00  -0.05
 118   1    -0.00   0.03  -0.01    -0.00   0.00   0.00     0.00  -0.01  -0.09
 119   1    -0.00   0.03  -0.01    -0.00   0.00   0.01     0.00  -0.01  -0.08
                      7                      8                      9
                        a                      a                      a 
 Frequencies --     6.8334                10.3861                11.7210
 Red. masses --    11.5116                11.9303                12.0956
 Frc consts  --     0.0000                 0.0000                 0.0000
 IR Inten    --     0.2428                 6.1479                 1.1889
 Raman Activ --     0.0000                 0.0000                 0.0000
 Depolar     --     0.0000                 0.0000                 0.0000
 Atom AN      X      Y      Z        X      Y      Z        X      Y      Z
   1  28     0.00  -0.01   0.00    -0.00   0.01   0.04    -0.00  -0.01   0.06
   2   6     0.10   0.07  -0.00     0.02   0.02   0.03    -0.03  -0.02   0.05
   3   6     0.07   0.09  -0.00     0.01   0.02  -0.03    -0.02  -0.03  -0.05
   4   6     0.04   0.07  -0.00     0.01   0.02  -0.04    -0.01  -0.03  -0.06
   5   6     0.00   0.09  -0.00    -0.00   0.02  -0.07    -0.00  -0.04  -0.12
   6   6    -0.03   0.07  -0.00    -0.01   0.02  -0.04     0.01  -0.03  -0.06
   7   6    -0.07   0.09  -0.00    -0.01   0.02  -0.03     0.02  -0.03  -0.05
   8   6    -0.10   0.07  -0.00    -0.02   0.02   0.03     0.03  -0.02   0.05
   9   6    -0.08   0.03   0.00    -0.01   0.01   0.05     0.02  -0.01   0.08
  10   7    -0.04   0.04   0.00    -0.01   0.01   0.01     0.01  -0.02   0.01
  11   6    -0.09  -0.00   0.00    -0.02   0.00   0.09     0.03  -0.00   0.14
  12   6    -0.08  -0.04   0.00    -0.01  -0.00   0.07     0.02   0.00   0.10
  13   6    -0.09  -0.07   0.00    -0.02  -0.01   0.07     0.03   0.02   0.10
  14   6    -0.07  -0.10   0.01    -0.01  -0.01   0.02     0.02   0.03   0.02
  15   6    -0.03  -0.08   0.01    -0.01  -0.01   0.00     0.01   0.02  -0.01
  16   7    -0.04  -0.05   0.00    -0.01  -0.00   0.03     0.01   0.01   0.05
  17   6     0.00  -0.10   0.01     0.00  -0.01  -0.02    -0.00   0.03  -0.05
  18   6     0.04  -0.08   0.00     0.01  -0.01   0.00    -0.01   0.02  -0.01
  19   6     0.07  -0.10   0.00     0.01  -0.01   0.02    -0.02   0.02   0.02
  20   6     0.10  -0.07   0.00     0.02  -0.01   0.06    -0.03   0.01   0.10
  21   6     0.08  -0.04   0.00     0.01  -0.00   0.06    -0.03   0.00   0.10
  22   7     0.04  -0.05   0.00     0.01  -0.00   0.03    -0.02   0.01   0.05
  23   6     0.10  -0.00  -0.00     0.01   0.00   0.08    -0.03  -0.00   0.14
  24   6     0.08   0.03  -0.00     0.01   0.01   0.05    -0.03  -0.01   0.08
  25   7     0.04   0.04  -0.00     0.01   0.01   0.01    -0.01  -0.02   0.01
  26   1     0.04   0.02  -0.00     0.01   0.01   0.01    -0.01  -0.01   0.03
  27   1     0.02   0.04  -0.00     0.00   0.01  -0.02    -0.01  -0.01  -0.03
  28   1    -0.02   0.04  -0.00    -0.00   0.01  -0.02     0.00  -0.01  -0.03
  29   1    -0.04   0.02  -0.00    -0.01   0.00   0.02     0.01  -0.01   0.03
  30   1    -0.04  -0.00   0.00    -0.01   0.00   0.03     0.01  -0.00   0.06
  31   1    -0.04  -0.02   0.00    -0.01  -0.00   0.03     0.01   0.00   0.04
  32   1    -0.02  -0.04   0.00    -0.00  -0.01   0.00     0.01   0.01  -0.00
  33   1     0.00  -0.04   0.00     0.00  -0.00  -0.01    -0.00   0.01  -0.02
  34   1     0.02  -0.04   0.00     0.00  -0.01   0.00    -0.01   0.01  -0.00
  35   1     0.04  -0.02   0.00     0.01  -0.00   0.03    -0.01   0.00   0.04
  36   1     0.04  -0.00  -0.00     0.01   0.00   0.03    -0.01  -0.00   0.05
  37  28    -0.00   0.01   0.00     0.00   0.02  -0.05     0.00  -0.02   0.04
  38   6    -0.10  -0.07  -0.02     0.02   0.03  -0.03    -0.03  -0.04   0.02
  39   6    -0.08  -0.09  -0.03     0.02   0.02   0.05    -0.02  -0.03  -0.05
  40   6    -0.04  -0.07  -0.02     0.01   0.01   0.06    -0.01  -0.02  -0.05
  41   6    -0.00  -0.09  -0.02     0.00   0.00   0.11     0.00  -0.02  -0.09
  42   6     0.03  -0.07  -0.02    -0.01   0.01   0.06     0.01  -0.02  -0.05
  43   6     0.07  -0.09  -0.02    -0.02   0.02   0.05     0.03  -0.03  -0.04
  44   6     0.10  -0.07  -0.02    -0.02   0.03  -0.03     0.03  -0.03   0.02
  45   6     0.08  -0.03  -0.01    -0.02   0.02  -0.06     0.03  -0.03   0.05
  46   7     0.04  -0.04  -0.01    -0.01   0.01  -0.01     0.01  -0.02   0.00
  47   6     0.10   0.01  -0.00    -0.02   0.02  -0.11     0.03  -0.02   0.09
  48   6     0.08   0.04   0.01    -0.02   0.01  -0.09     0.03  -0.01   0.08
  49   6     0.10   0.08   0.02    -0.02   0.01  -0.09     0.03   0.01   0.08
  50   6     0.07   0.10   0.03    -0.01  -0.01  -0.03     0.02   0.02   0.03
  51   6     0.03   0.08   0.03    -0.01  -0.01  -0.01     0.01   0.02   0.01
  52   7     0.04   0.05   0.01    -0.01   0.00  -0.05     0.02   0.00   0.04
  53   6    -0.00   0.10   0.03     0.00  -0.02   0.02     0.00   0.03  -0.02
  54   6    -0.04   0.08   0.02     0.01  -0.01  -0.01    -0.01   0.02   0.01
  55   6    -0.08   0.10   0.03     0.02  -0.01  -0.04    -0.02   0.02   0.03
  56   6    -0.10   0.08   0.02     0.02   0.01  -0.09    -0.03   0.00   0.08
  57   6    -0.08   0.04   0.00     0.02   0.01  -0.09    -0.02  -0.01   0.08
  58   7    -0.05   0.05   0.01     0.01   0.00  -0.05    -0.01   0.00   0.04
  59   6    -0.10   0.01  -0.01     0.02   0.03  -0.11    -0.03  -0.02   0.09
  60   6    -0.08  -0.03  -0.01     0.02   0.02  -0.06    -0.02  -0.03   0.05
  61   7    -0.05  -0.04  -0.01     0.01   0.02  -0.01    -0.01  -0.02   0.00
  62   1    -0.04  -0.02  -0.01     0.01   0.01  -0.02    -0.01  -0.01   0.02
  63   1    -0.02  -0.04  -0.01     0.01   0.00   0.03    -0.01  -0.01  -0.02
  64   1     0.02  -0.04  -0.01    -0.01   0.00   0.03     0.01  -0.01  -0.02
  65   1     0.04  -0.02  -0.01    -0.01   0.01  -0.02     0.01  -0.01   0.02
  66   1     0.04   0.00  -0.00    -0.01   0.01  -0.04     0.01  -0.01   0.04
  67   1     0.04   0.02   0.01    -0.01   0.00  -0.04     0.01   0.00   0.03
  68   1     0.02   0.04   0.01    -0.00  -0.01  -0.00     0.01   0.01   0.00
  69   1    -0.00   0.04   0.01     0.00  -0.01   0.01    -0.00   0.01  -0.01
  70   1    -0.02   0.04   0.01     0.00  -0.01  -0.01    -0.01   0.01   0.00
  71   1    -0.04   0.02   0.00     0.01   0.00  -0.04    -0.01   0.00   0.03
  72   1    -0.04   0.00  -0.00     0.01   0.01  -0.04    -0.01  -0.01   0.04
  73   6     0.00   0.13  -0.00    -0.00   0.02  -0.12    -0.00  -0.05  -0.19
  74   6     0.00   0.15  -0.00    -0.00   0.02  -0.16    -0.00  -0.05  -0.24
  75   6     0.00   0.16  -0.00    -0.00   0.02  -0.18    -0.00  -0.05  -0.27
  76   6     0.00   0.16  -0.00    -0.00   0.02  -0.19    -0.00  -0.04  -0.27
  77   6     0.00   0.15   0.00    -0.00   0.01  -0.19    -0.00  -0.03  -0.25
  78   6     0.00   0.12   0.00    -0.00   0.01  -0.17    -0.00  -0.02  -0.20
  79   6    -0.00  -0.13  -0.02     0.00  -0.02   0.21     0.00   0.02  -0.13
  80   6    -0.00  -0.15  -0.03     0.00  -0.02   0.24     0.00   0.01  -0.17
  81   6    -0.00  -0.16  -0.03     0.00  -0.02   0.25     0.00  -0.00  -0.19
  82   6    -0.00  -0.17  -0.03     0.00  -0.01   0.24     0.00  -0.01  -0.20
  83   6    -0.00  -0.15  -0.03     0.00  -0.01   0.21     0.00  -0.02  -0.18
  84   6    -0.00  -0.13  -0.03     0.00  -0.00   0.17     0.00  -0.02  -0.14
  85  28    -0.00  -0.00   0.01     0.00  -0.03  -0.01     0.00   0.05   0.05
  86   6    -0.09   0.07   0.01    -0.03  -0.01  -0.13     0.01   0.02   0.07
  87   6    -0.06   0.09   0.01    -0.02  -0.00  -0.16     0.00   0.01  -0.04
  88   6    -0.03   0.07   0.01    -0.01  -0.00  -0.12     0.00   0.01  -0.07
  89   6     0.00   0.09   0.01    -0.00  -0.00  -0.14    -0.00  -0.00  -0.13
  90   6     0.03   0.07   0.01     0.01  -0.00  -0.12    -0.00   0.00  -0.07
  91   6     0.07   0.09   0.01     0.02  -0.00  -0.16    -0.00   0.01  -0.05
  92   6     0.09   0.07   0.02     0.03  -0.01  -0.13    -0.01   0.02   0.06
  93   6     0.07   0.03   0.01     0.02  -0.01  -0.07    -0.01   0.03   0.09
  94   7     0.04   0.04   0.01     0.01  -0.01  -0.07    -0.00   0.02   0.01
  95   6     0.09  -0.00   0.01     0.03  -0.01  -0.02    -0.01   0.04   0.16
  96   6     0.07  -0.03   0.01     0.02  -0.02   0.05    -0.01   0.03   0.11
  97   6     0.09  -0.07   0.00     0.02  -0.02   0.11    -0.01   0.04   0.11
  98   6     0.07  -0.09  -0.01     0.02  -0.02   0.16    -0.00   0.03   0.01
  99   6     0.03  -0.08  -0.01     0.01  -0.02   0.13    -0.00   0.02  -0.02
 100   7     0.04  -0.04   0.00     0.01  -0.02   0.07    -0.00   0.03   0.04
 101   6    -0.00  -0.09  -0.02     0.00  -0.02   0.16     0.00   0.02  -0.07
 102   6    -0.03  -0.08  -0.01    -0.01  -0.02   0.13     0.00   0.02  -0.02
 103   6    -0.07  -0.09  -0.01    -0.02  -0.02   0.16     0.01   0.03   0.01
 104   6    -0.09  -0.07  -0.00    -0.02  -0.02   0.11     0.01   0.03   0.11
 105   6    -0.07  -0.03   0.00    -0.02  -0.02   0.04     0.01   0.03   0.11
 106   7    -0.04  -0.04  -0.00    -0.01  -0.02   0.07     0.00   0.03   0.04
 107   6    -0.09   0.00   0.01    -0.03  -0.01  -0.02     0.01   0.04   0.16
 108   6    -0.07   0.03   0.01    -0.02  -0.01  -0.07     0.01   0.03   0.09
 109   7    -0.04   0.04   0.01    -0.01  -0.01  -0.08     0.00   0.02   0.02
 110   1    -0.03   0.02   0.01    -0.01  -0.00  -0.04     0.00   0.01   0.03
 111   1    -0.02   0.03   0.00    -0.01   0.00  -0.06     0.00  -0.00  -0.03
 112   1     0.02   0.03   0.00     0.01   0.00  -0.06    -0.00  -0.00  -0.03
 113   1     0.03   0.02   0.01     0.01  -0.00  -0.04    -0.00   0.01   0.03
 114   1     0.03   0.00   0.01     0.01  -0.00  -0.01    -0.00   0.01   0.06
 115   1     0.03  -0.02   0.00     0.01  -0.01   0.03    -0.00   0.01   0.05
 116   1     0.02  -0.04  -0.00     0.00  -0.01   0.06    -0.00   0.01  -0.01
 117   1    -0.02  -0.04  -0.01    -0.00  -0.01   0.06     0.00   0.01  -0.01
 118   1    -0.03  -0.02   0.00    -0.01  -0.01   0.03     0.00   0.01   0.05
 119   1    -0.03   0.00   0.00    -0.01  -0.00  -0.01     0.00   0.01   0.06
                     10                     11                     12
                        a                      a                      a 
 Frequencies --    19.6586                23.1110                25.4415
 Red. masses --    13.6450                10.9403                10.9495
 Frc consts  --     0.0000                 0.0000                 0.0000
 IR Inten    --     1.1238                 2.7045                 8.7915
 Raman Activ --     0.0000                 0.0000                 0.0000
 Depolar     --     0.0000                 0.0000                 0.0000
 Atom AN      X      Y      Z        X      Y      Z        X      Y      Z
   1  28     0.00  -0.07  -0.00    -0.01  -0.00  -0.00    -0.00  -0.00   0.00
   2   6    -0.10  -0.11  -0.00    -0.00  -0.00  -0.02    -0.00  -0.00   0.00
   3   6    -0.07  -0.14   0.02    -0.00  -0.00  -0.02    -0.00  -0.00   0.01
   4   6    -0.04  -0.12   0.02    -0.00  -0.00  -0.01    -0.00  -0.00   0.00
   5   6     0.00  -0.14   0.03    -0.00  -0.00  -0.00    -0.00  -0.00   0.00
   6   6     0.04  -0.12   0.02    -0.00  -0.00   0.01    -0.00  -0.00  -0.00
   7   6     0.08  -0.14   0.02    -0.00  -0.00   0.02    -0.00  -0.00  -0.00
   8   6     0.10  -0.11   0.00    -0.00  -0.00   0.02     0.00  -0.00  -0.00
   9   6     0.08  -0.07  -0.01    -0.00  -0.00   0.01    -0.00  -0.00  -0.00
  10   7     0.04  -0.08   0.01    -0.00  -0.00   0.00    -0.00  -0.00  -0.00
  11   6     0.10  -0.03  -0.02    -0.00  -0.00  -0.00     0.00  -0.00  -0.00
  12   6     0.08   0.01  -0.02    -0.00   0.00  -0.01    -0.00  -0.00   0.00
  13   6     0.10   0.04  -0.02    -0.00   0.00  -0.02     0.00   0.00   0.00
  14   6     0.07   0.07  -0.01    -0.00   0.00  -0.02    -0.00   0.00   0.00
  15   6     0.04   0.05   0.00    -0.00   0.00  -0.01    -0.00   0.00   0.00
  16   7     0.04   0.01  -0.01    -0.00   0.00  -0.01    -0.00   0.00   0.00
  17   6    -0.00   0.07   0.01    -0.00   0.00  -0.00    -0.00   0.00   0.00
  18   6    -0.04   0.05   0.00    -0.01   0.00   0.01    -0.00   0.00  -0.00
  19   6    -0.08   0.07  -0.01    -0.01  -0.00   0.02    -0.00   0.00  -0.00
  20   6    -0.10   0.04  -0.02    -0.01  -0.00   0.02    -0.00   0.00  -0.00
  21   6    -0.08   0.00  -0.02    -0.01  -0.00   0.01    -0.00   0.00  -0.00
  22   7    -0.05   0.01  -0.01    -0.01  -0.00   0.01    -0.00   0.00  -0.00
  23   6    -0.10  -0.03  -0.02    -0.01  -0.00   0.00    -0.00  -0.00  -0.00
  24   6    -0.08  -0.07  -0.01    -0.00  -0.00  -0.01    -0.00  -0.00   0.00
  25   7    -0.04  -0.08   0.00    -0.00  -0.00  -0.00    -0.00  -0.00   0.00
  26   1    -0.04  -0.03  -0.00    -0.00  -0.00  -0.01    -0.00  -0.00   0.00
  27   1    -0.02  -0.05   0.01    -0.00  -0.00  -0.01    -0.00  -0.00   0.00
  28   1     0.02  -0.05   0.01    -0.00  -0.00   0.01    -0.00  -0.00  -0.00
  29   1     0.04  -0.03  -0.00    -0.00  -0.00   0.01     0.00  -0.00  -0.00
  30   1     0.04  -0.01  -0.01    -0.00  -0.00  -0.00     0.00  -0.00  -0.00
  31   1     0.04   0.01  -0.01    -0.00   0.00  -0.01     0.00   0.00   0.00
  32   1     0.02   0.03  -0.00    -0.00   0.00  -0.01    -0.00   0.00   0.00
  33   1    -0.00   0.03   0.00    -0.00   0.00  -0.00    -0.00   0.00   0.00
  34   1    -0.02   0.03  -0.00    -0.00   0.00   0.01    -0.00   0.00  -0.00
  35   1    -0.04   0.01  -0.01    -0.00  -0.00   0.01    -0.00   0.00  -0.00
  36   1    -0.04  -0.01  -0.01    -0.00  -0.00   0.00    -0.00  -0.00  -0.00
  37  28    -0.00  -0.07  -0.02     0.01  -0.00  -0.00     0.01   0.00  -0.00
  38   6    -0.10  -0.10  -0.03     0.00   0.00  -0.02    -0.00   0.06  -0.30
  39   6    -0.07  -0.13   0.01     0.00   0.00  -0.02    -0.01   0.06  -0.30
  40   6    -0.03  -0.11   0.02     0.00   0.00  -0.01    -0.00   0.03  -0.14
  41   6     0.00  -0.14   0.04     0.00   0.00  -0.00    -0.00   0.00  -0.00
  42   6     0.03  -0.11   0.02     0.00  -0.00   0.01    -0.00  -0.03   0.14
  43   6     0.07  -0.13   0.01     0.00  -0.00   0.02    -0.00  -0.06   0.30
  44   6     0.09  -0.09  -0.03     0.00  -0.00   0.02    -0.00  -0.06   0.29
  45   6     0.08  -0.06  -0.04     0.00  -0.00   0.01    -0.00  -0.03   0.13
  46   7     0.04  -0.07  -0.01     0.00  -0.00   0.00     0.00  -0.02   0.07
  47   6     0.09  -0.02  -0.06     0.00   0.00  -0.00     0.00  -0.00  -0.00
  48   6     0.08   0.01  -0.03     0.00   0.00  -0.01     0.01   0.02  -0.14
  49   6     0.09   0.05  -0.03     0.00   0.00  -0.02     0.01   0.04  -0.29
  50   6     0.07   0.07   0.02     0.00   0.00  -0.02     0.01   0.04  -0.29
  51   6     0.03   0.05   0.02     0.00   0.00  -0.01     0.01   0.02  -0.14
  52   7     0.04   0.01  -0.01     0.00   0.00  -0.01     0.01   0.01  -0.08
  53   6    -0.00   0.06   0.04     0.00   0.00  -0.00     0.01  -0.00   0.00
  54   6    -0.03   0.05   0.02     0.00  -0.00   0.01     0.01  -0.02   0.14
  55   6    -0.07   0.07   0.01     0.00  -0.00   0.02     0.01  -0.04   0.29
  56   6    -0.10   0.05  -0.03     0.00  -0.00   0.02     0.01  -0.05   0.29
  57   6    -0.08   0.01  -0.04     0.00  -0.00   0.01     0.01  -0.02   0.14
  58   7    -0.04   0.01  -0.01     0.00  -0.00   0.01     0.01  -0.01   0.08
  59   6    -0.10  -0.02  -0.06     0.00  -0.00   0.00     0.00   0.00   0.00
  60   6    -0.08  -0.06  -0.04     0.00   0.00  -0.01    -0.00   0.03  -0.14
  61   7    -0.04  -0.07  -0.01     0.00   0.00  -0.00     0.00   0.02  -0.07
  62   1    -0.04  -0.03  -0.01     0.00   0.00  -0.01    -0.00   0.02  -0.11
  63   1    -0.02  -0.05   0.01     0.00   0.00  -0.01    -0.00   0.02  -0.11
  64   1     0.02  -0.05   0.01     0.00  -0.00   0.01    -0.00  -0.02   0.11
  65   1     0.04  -0.03  -0.01     0.00  -0.00   0.01    -0.00  -0.02   0.11
  66   1     0.04  -0.00  -0.02     0.00   0.00  -0.00     0.00  -0.00  -0.00
  67   1     0.04   0.01  -0.01     0.00   0.00  -0.01     0.00   0.02  -0.11
  68   1     0.02   0.03   0.01     0.00   0.00  -0.01     0.00   0.02  -0.11
  69   1    -0.00   0.03   0.02     0.00   0.00  -0.00     0.00  -0.00   0.00
  70   1    -0.02   0.03   0.01     0.00  -0.00   0.01     0.00  -0.02   0.11
  71   1    -0.04   0.01  -0.01     0.00  -0.00   0.01     0.00  -0.02   0.11
  72   1    -0.04  -0.00  -0.02     0.00  -0.00   0.00     0.00   0.00   0.00
  73   6     0.00  -0.16   0.04    -0.00  -0.00  -0.00    -0.00  -0.00   0.00
  74   6     0.00  -0.13   0.05    -0.00  -0.00  -0.00    -0.00  -0.00   0.00
  75   6     0.00  -0.09   0.05    -0.00  -0.00  -0.00    -0.00  -0.00   0.00
  76   6     0.00  -0.02   0.04    -0.00   0.00  -0.00    -0.00   0.00   0.00
  77   6     0.00   0.03   0.03    -0.00   0.00  -0.00    -0.00   0.00   0.00
  78   6     0.00   0.08   0.02    -0.00   0.00  -0.00    -0.00   0.00   0.00
  79   6     0.00   0.07   0.06     0.00  -0.00  -0.00    -0.00  -0.00   0.00
  80   6     0.00   0.01   0.08     0.00  -0.00  -0.00    -0.00  -0.00   0.00
  81   6     0.00  -0.04   0.09     0.00  -0.00  -0.00    -0.00  -0.00   0.00
  82   6     0.00  -0.11   0.08     0.00  -0.00  -0.00    -0.00  -0.00   0.00
  83   6     0.00  -0.14   0.07     0.00   0.00  -0.00    -0.00  -0.00   0.00
  84   6     0.00  -0.17   0.06     0.00  -0.00  -0.00    -0.00   0.00  -0.00
  85  28     0.00   0.18  -0.02     0.01   0.00   0.00    -0.00   0.00  -0.00
  86   6    -0.01   0.08  -0.04    -0.01  -0.04  -0.29    -0.00   0.00   0.02
  87   6    -0.00   0.09  -0.02    -0.01  -0.04  -0.30    -0.00   0.01   0.02
  88   6    -0.00   0.09  -0.01    -0.00  -0.02  -0.14    -0.00   0.00   0.01
  89   6     0.00   0.09   0.01    -0.00   0.00   0.00    -0.00   0.00  -0.00
  90   6     0.00   0.09  -0.01    -0.00   0.02   0.14    -0.00   0.00  -0.01
  91   6     0.01   0.09  -0.02    -0.00   0.04   0.30     0.00   0.00  -0.02
  92   6     0.01   0.08  -0.04    -0.00   0.04   0.30     0.00  -0.00  -0.02
  93   6     0.01   0.08  -0.04    -0.00   0.02   0.14     0.00  -0.00  -0.01
  94   7     0.00   0.09  -0.02    -0.00   0.01   0.08    -0.00   0.00  -0.00
  95   6     0.01   0.08  -0.05     0.00   0.00   0.00     0.00   0.00   0.00
  96   6     0.01   0.08  -0.03     0.00  -0.01  -0.14     0.00   0.00   0.01
  97   6     0.01   0.08  -0.01     0.01  -0.03  -0.30     0.00   0.00   0.02
  98   6     0.01   0.08   0.02     0.01  -0.03  -0.30    -0.00   0.00   0.02
  99   6     0.00   0.08   0.02     0.00  -0.01  -0.14    -0.00  -0.00   0.01
 100   7     0.00   0.09  -0.00     0.00  -0.01  -0.07    -0.00   0.00   0.01
 101   6     0.00   0.08   0.04     0.00  -0.00  -0.00    -0.00  -0.00   0.00
 102   6    -0.00   0.08   0.02     0.00   0.01   0.14    -0.00  -0.00  -0.01
 103   6    -0.01   0.08   0.02     0.01   0.03   0.30    -0.00  -0.00  -0.02
 104   6    -0.01   0.08  -0.01     0.01   0.03   0.30    -0.00  -0.00  -0.02
 105   6    -0.01   0.08  -0.03     0.00   0.01   0.14    -0.00  -0.00  -0.01
 106   7    -0.00   0.09  -0.00     0.00   0.01   0.08    -0.00  -0.00  -0.01
 107   6    -0.01   0.08  -0.05     0.00  -0.00   0.00    -0.00   0.00  -0.00
 108   6    -0.01   0.08  -0.04    -0.00  -0.02  -0.14    -0.00   0.00   0.01
 109   7    -0.00   0.09  -0.02    -0.00  -0.01  -0.07    -0.00   0.00   0.00
 110   1    -0.00   0.02  -0.02    -0.00  -0.01  -0.11    -0.00   0.00   0.01
 111   1    -0.00   0.03  -0.00    -0.00  -0.01  -0.11    -0.00   0.00   0.01
 112   1     0.00   0.03  -0.00    -0.00   0.02   0.11     0.00   0.00  -0.01
 113   1     0.00   0.02  -0.02    -0.00   0.02   0.11     0.00  -0.00  -0.01
 114   1     0.00   0.02  -0.02     0.00   0.00   0.00     0.00   0.00   0.00
 115   1     0.00   0.02  -0.01     0.00  -0.01  -0.11     0.00   0.00   0.01
 116   1     0.00   0.02   0.01     0.00  -0.01  -0.11    -0.00   0.00   0.01
 117   1    -0.00   0.02   0.01     0.00   0.01   0.11    -0.00  -0.00  -0.01
 118   1    -0.00   0.02  -0.01     0.00   0.01   0.11    -0.00  -0.00  -0.01
 119   1    -0.00   0.02  -0.02     0.00  -0.00   0.00    -0.00   0.00  -0.00
                     13                     14                     15
                        a                      a                      a 
 Frequencies --    26.1099                27.1121                31.7250
 Red. masses --    10.9415                11.8136                11.4395
 Frc consts  --     0.0000                 0.0000                 0.0000
 IR Inten    --     0.0274                 0.0022                14.7152
 Raman Activ --     0.0000                 0.0000                 0.0000
 Depolar     --     0.0000                 0.0000                 0.0000
 Atom AN      X      Y      Z        X      Y      Z        X      Y      Z
   1  28    -0.01  -0.00  -0.00    -0.00   0.06   0.00     0.00  -0.01   0.02
   2   6     0.01  -0.01  -0.30     0.07   0.08  -0.01    -0.02  -0.02  -0.01
   3   6     0.01  -0.01  -0.30     0.05   0.10   0.01    -0.01  -0.02   0.10
   4   6     0.00  -0.01  -0.14     0.02   0.09   0.02    -0.01  -0.02   0.11
   5   6     0.00  -0.00  -0.00    -0.00   0.10   0.03    -0.00  -0.02   0.16
   6   6     0.00   0.00   0.14    -0.03   0.09   0.02     0.01  -0.02   0.11
   7   6     0.01   0.01   0.30    -0.05   0.10   0.02     0.01  -0.02   0.10
   8   6     0.01   0.01   0.30    -0.07   0.08   0.00     0.02  -0.02  -0.00
   9   6     0.00   0.00   0.14    -0.06   0.05  -0.01     0.01  -0.01  -0.04
  10   7     0.00   0.00   0.08    -0.03   0.06   0.00     0.01  -0.01   0.03
  11   6    -0.00   0.00   0.00    -0.07   0.03  -0.03     0.01  -0.00  -0.12
  12   6    -0.01   0.01  -0.14    -0.06  -0.00  -0.02     0.01   0.00  -0.09
  13   6    -0.01   0.01  -0.29    -0.07  -0.03  -0.02     0.01   0.01  -0.10
  14   6    -0.01   0.01  -0.29    -0.05  -0.05  -0.00     0.01   0.01  -0.01
  15   6    -0.01   0.01  -0.14    -0.03  -0.03   0.01     0.01   0.01   0.03
  16   7    -0.01   0.00  -0.08    -0.03  -0.01  -0.01     0.01   0.00  -0.02
  17   6    -0.01   0.00  -0.00    -0.00  -0.05   0.02    -0.00   0.01   0.08
  18   6    -0.01  -0.01   0.14     0.02  -0.03   0.01    -0.01   0.00   0.04
  19   6    -0.02  -0.01   0.29     0.05  -0.05   0.01    -0.01   0.01  -0.00
  20   6    -0.02  -0.01   0.29     0.07  -0.03  -0.01    -0.01   0.01  -0.09
  21   6    -0.01  -0.01   0.14     0.06   0.00  -0.01    -0.01   0.00  -0.09
  22   7    -0.01  -0.00   0.08     0.03  -0.00  -0.00    -0.01   0.00  -0.02
  23   6    -0.01  -0.00   0.00     0.07   0.03  -0.03    -0.01  -0.01  -0.12
  24   6     0.00  -0.01  -0.14     0.06   0.05  -0.01    -0.01  -0.01  -0.04
  25   7     0.00  -0.00  -0.08     0.03   0.06   0.00    -0.01  -0.01   0.03
  26   1     0.00  -0.00  -0.11     0.03   0.02  -0.01    -0.01  -0.01  -0.01
  27   1     0.00  -0.00  -0.12     0.01   0.04   0.01    -0.00  -0.01   0.05
  28   1     0.00   0.00   0.11    -0.02   0.04   0.01     0.00  -0.01   0.05
  29   1     0.00   0.00   0.11    -0.03   0.02  -0.00     0.01  -0.01  -0.01
  30   1    -0.00   0.00   0.00    -0.03   0.01  -0.01     0.00  -0.00  -0.05
  31   1    -0.00   0.00  -0.11    -0.03  -0.01  -0.01     0.01   0.00  -0.04
  32   1    -0.00   0.00  -0.11    -0.02  -0.02   0.00     0.00   0.00   0.01
  33   1    -0.00   0.00  -0.00    -0.00  -0.02   0.01    -0.00   0.00   0.04
  34   1    -0.01  -0.00   0.11     0.02  -0.02   0.01    -0.00   0.00   0.01
  35   1    -0.01  -0.00   0.11     0.03  -0.01  -0.01    -0.00   0.00  -0.04
  36   1    -0.00  -0.00   0.00     0.03   0.01  -0.01    -0.00  -0.00  -0.05
  37  28     0.00   0.00   0.00     0.00  -0.06  -0.01     0.00   0.02  -0.02
  38   6     0.00   0.00  -0.00    -0.08  -0.08  -0.02     0.01   0.01   0.01
  39   6     0.00   0.00  -0.00    -0.05  -0.10  -0.03     0.00   0.03  -0.10
  40   6     0.00   0.00  -0.00    -0.03  -0.09  -0.02     0.00   0.03  -0.12
  41   6     0.00   0.00   0.00     0.00  -0.10  -0.03    -0.00   0.04  -0.17
  42   6     0.00   0.00   0.00     0.03  -0.09  -0.02    -0.00   0.03  -0.12
  43   6     0.00   0.00   0.00     0.06  -0.11  -0.02    -0.00   0.03  -0.11
  44   6    -0.00   0.00   0.00     0.08  -0.08  -0.01    -0.01   0.01   0.00
  45   6     0.00   0.00   0.00     0.06  -0.06  -0.01    -0.01  -0.00   0.05
  46   7     0.00   0.00   0.00     0.03  -0.06  -0.01    -0.00   0.01  -0.03
  47   6    -0.00   0.00   0.00     0.08  -0.03  -0.00    -0.01  -0.02   0.13
  48   6     0.00   0.00  -0.00     0.06   0.00   0.00    -0.01  -0.02   0.10
  49   6    -0.00  -0.00  -0.00     0.08   0.03   0.00    -0.01  -0.02   0.10
  50   6     0.00  -0.00  -0.00     0.06   0.05   0.01    -0.01  -0.01   0.01
  51   6     0.00  -0.00  -0.00     0.03   0.04   0.01    -0.00   0.00  -0.04
  52   7     0.00   0.00  -0.00     0.04   0.01   0.00    -0.00  -0.00   0.02
  53   6     0.00  -0.00  -0.00     0.00   0.05   0.01    -0.00   0.01  -0.08
  54   6     0.00  -0.00   0.00    -0.03   0.03   0.01     0.00   0.00  -0.04
  55   6     0.00  -0.00   0.00    -0.06   0.05   0.02     0.01  -0.01   0.00
  56   6     0.00  -0.00   0.00    -0.08   0.03   0.01     0.01  -0.02   0.10
  57   6     0.00  -0.00   0.00    -0.06  -0.00   0.00     0.01  -0.02   0.09
  58   7     0.00  -0.00   0.00    -0.03   0.00   0.00     0.00  -0.00   0.02
  59   6     0.00   0.00  -0.00    -0.08  -0.03  -0.00     0.01  -0.02   0.13
  60   6     0.00   0.00  -0.00    -0.06  -0.06  -0.01     0.01  -0.00   0.05
  61   7     0.00   0.00  -0.00    -0.03  -0.06  -0.02     0.00   0.01  -0.03
  62   1     0.00   0.00  -0.00    -0.03  -0.02  -0.01     0.00  -0.00   0.02
  63   1     0.00   0.00  -0.00    -0.02  -0.04  -0.01     0.00   0.01  -0.05
  64   1     0.00   0.00   0.00     0.02  -0.04  -0.01    -0.00   0.01  -0.05
  65   1    -0.00   0.00   0.00     0.03  -0.03  -0.00    -0.00  -0.00   0.01
  66   1    -0.00   0.00   0.00     0.03  -0.01  -0.00    -0.00  -0.01   0.06
  67   1    -0.00  -0.00  -0.00     0.03   0.01   0.00    -0.00  -0.01   0.05
  68   1     0.00  -0.00  -0.00     0.02   0.02   0.00    -0.00  -0.00  -0.01
  69   1     0.00  -0.00  -0.00     0.00   0.02   0.00    -0.00   0.00  -0.04
  70   1     0.00  -0.00   0.00    -0.02   0.02   0.01     0.00  -0.00  -0.01
  71   1     0.00  -0.00   0.00    -0.03   0.01   0.00     0.00  -0.01   0.04
  72   1     0.00   0.00  -0.00    -0.03  -0.01  -0.00     0.00  -0.01   0.06
  73   6     0.00  -0.00  -0.00    -0.00   0.11   0.04    -0.00  -0.02   0.20
  74   6     0.00  -0.00  -0.00    -0.00   0.06   0.04    -0.00  -0.01   0.18
  75   6     0.00   0.00  -0.00    -0.00   0.00   0.03    -0.00   0.01   0.13
  76   6     0.00   0.00   0.00    -0.00  -0.08   0.02    -0.00   0.03   0.05
  77   6     0.00   0.00   0.00    -0.00  -0.13   0.00    -0.00   0.03  -0.03
  78   6     0.00   0.00   0.00    -0.00  -0.17  -0.01    -0.00   0.04  -0.10
  79   6     0.00  -0.00  -0.00     0.00   0.18   0.05    -0.00  -0.03   0.10
  80   6     0.00  -0.00  -0.00     0.00   0.14   0.04    -0.00  -0.02   0.03
  81   6     0.00  -0.00  -0.00     0.00   0.09   0.02    -0.00  -0.00  -0.05
  82   6     0.00   0.00   0.00     0.00  -0.00  -0.00    -0.00   0.02  -0.13
  83   6     0.00   0.00   0.00     0.00  -0.06  -0.02    -0.00   0.04  -0.18
  84   6     0.00   0.00   0.00     0.00  -0.12  -0.03    -0.00   0.05  -0.20
  85  28     0.00  -0.00  -0.00     0.00   0.00   0.00    -0.00  -0.01   0.00
  86   6    -0.00   0.01   0.02     0.13  -0.10  -0.05    -0.04   0.01  -0.15
  87   6    -0.00   0.01   0.02     0.09  -0.14  -0.05    -0.03   0.02  -0.18
  88   6     0.00   0.00   0.01     0.04  -0.11  -0.03    -0.02   0.01  -0.13
  89   6     0.00   0.00   0.00    -0.00  -0.13  -0.02    -0.00   0.02  -0.13
  90   6     0.00   0.00  -0.01    -0.05  -0.11  -0.03     0.01   0.01  -0.13
  91   6     0.00  -0.00  -0.02    -0.09  -0.14  -0.05     0.03   0.02  -0.18
  92   6     0.00  -0.00  -0.02    -0.13  -0.10  -0.05     0.04   0.01  -0.15
  93   6     0.00  -0.00  -0.01    -0.10  -0.05  -0.03     0.03   0.00  -0.08
  94   7     0.00   0.00  -0.01    -0.06  -0.06  -0.02     0.02   0.01  -0.08
  95   6     0.00  -0.00  -0.00    -0.13   0.00  -0.01     0.04  -0.00   0.00
  96   6     0.00  -0.00   0.01    -0.10   0.05   0.02     0.03  -0.01   0.08
  97   6     0.00  -0.00   0.02    -0.13   0.10   0.04     0.03  -0.01   0.15
  98   6     0.00  -0.00   0.02    -0.09   0.14   0.05     0.02  -0.02   0.18
  99   6     0.00  -0.00   0.01    -0.04   0.11   0.04     0.01  -0.02   0.13
 100   7     0.00  -0.00   0.00    -0.06   0.06   0.02     0.01  -0.01   0.08
 101   6     0.00  -0.00  -0.00     0.00   0.14   0.05    -0.00  -0.03   0.13
 102   6     0.00  -0.00  -0.01     0.05   0.11   0.05    -0.01  -0.02   0.13
 103   6    -0.00  -0.01  -0.02     0.10   0.14   0.06    -0.02  -0.02   0.18
 104   6    -0.00  -0.00  -0.02     0.13   0.10   0.04    -0.03  -0.01   0.15
 105   6    -0.00  -0.00  -0.01     0.10   0.05   0.02    -0.03  -0.01   0.08
 106   7     0.00  -0.00  -0.00     0.06   0.06   0.03    -0.02  -0.01   0.08
 107   6    -0.00   0.00   0.00     0.13  -0.00  -0.01    -0.04  -0.00   0.00
 108   6    -0.00   0.00   0.01     0.10  -0.05  -0.03    -0.03   0.00  -0.08
 109   7     0.00   0.00   0.01     0.05  -0.06  -0.02    -0.02   0.01  -0.08
 110   1    -0.00   0.00   0.01     0.05  -0.03  -0.02    -0.02   0.00  -0.05
 111   1    -0.00   0.00   0.01     0.03  -0.05  -0.02    -0.01   0.01  -0.07
 112   1     0.00   0.00  -0.01    -0.03  -0.05  -0.02     0.01   0.01  -0.07
 113   1     0.00  -0.00  -0.01    -0.05  -0.03  -0.02     0.02   0.00  -0.05
 114   1     0.00  -0.00  -0.00    -0.05  -0.00  -0.01     0.01  -0.00   0.00
 115   1     0.00  -0.00   0.01    -0.05   0.03   0.01     0.01  -0.00   0.05
 116   1     0.00  -0.00   0.01    -0.03   0.05   0.02     0.01  -0.01   0.07
 117   1    -0.00  -0.00  -0.01     0.03   0.05   0.02    -0.01  -0.01   0.07
 118   1    -0.00  -0.00  -0.01     0.05   0.03   0.01    -0.01  -0.00   0.05
 119   1    -0.00   0.00   0.00     0.05  -0.00  -0.01    -0.01  -0.00   0.00
                     16                     17                     18
                        a                      a                      a 
 Frequencies --    40.7822                49.1903                64.3565
 Red. masses --    11.5884                18.9900                11.9176
 Frc consts  --     0.0000                 0.0000                 0.0000
 IR Inten    --    53.8651                 0.0289                 8.8218
 Raman Activ --     0.0000                 0.0000                 0.0000
 Depolar     --     0.0000                 0.0000                 0.0000
 Atom AN      X      Y      Z        X      Y      Z        X      Y      Z
   1  28     0.00  -0.00  -0.04     0.27   0.00   0.00     0.00   0.01   0.07
   2   6    -0.00  -0.00  -0.01     0.12  -0.01  -0.01     0.00   0.01   0.04
   3   6     0.00  -0.01  -0.12     0.12   0.00  -0.01     0.00   0.01   0.12
   4   6     0.00  -0.01  -0.13     0.10  -0.01  -0.00    -0.00   0.01   0.11
   5   6     0.00  -0.01  -0.18     0.09  -0.00  -0.00    -0.00   0.01   0.11
   6   6     0.00  -0.01  -0.13     0.10   0.00   0.00    -0.00   0.01   0.11
   7   6     0.00  -0.01  -0.12     0.12  -0.00   0.01    -0.00   0.01   0.12
   8   6     0.00  -0.00  -0.01     0.13   0.01   0.01    -0.00   0.01   0.04
   9   6     0.01  -0.00   0.04     0.12   0.01   0.00    -0.00   0.00  -0.01
  10   7     0.00  -0.00  -0.05     0.12   0.01   0.00    -0.00   0.01   0.06
  11   6     0.01  -0.00   0.13     0.12   0.02   0.00    -0.01   0.00  -0.11
  12   6     0.01  -0.00   0.10     0.13   0.01  -0.00    -0.01   0.00  -0.10
  13   6     0.01  -0.00   0.11     0.12   0.00  -0.01    -0.01   0.00  -0.12
  14   6     0.01   0.00   0.01     0.13   0.00  -0.01    -0.01  -0.00  -0.01
  15   6     0.00   0.00  -0.05     0.13   0.00  -0.00    -0.00  -0.00   0.06
  16   7     0.01  -0.00   0.01     0.14   0.01  -0.00    -0.00   0.00   0.00
  17   6     0.00   0.01  -0.10     0.14   0.00   0.00    -0.00  -0.01   0.11
  18   6     0.00   0.00  -0.05     0.13  -0.00   0.00     0.00  -0.00   0.06
  19   6    -0.00   0.00   0.00     0.13   0.00   0.01     0.01  -0.00  -0.01
  20   6    -0.01  -0.00   0.11     0.12  -0.00   0.01     0.01   0.00  -0.12
  21   6    -0.01  -0.00   0.10     0.13  -0.01   0.00     0.01   0.00  -0.10
  22   7    -0.00   0.00   0.01     0.14  -0.01   0.00     0.00   0.00   0.00
  23   6    -0.01  -0.00   0.13     0.12  -0.02  -0.00     0.01   0.00  -0.11
  24   6    -0.00  -0.00   0.04     0.12  -0.01  -0.00     0.00   0.00  -0.01
  25   7     0.00  -0.00  -0.05     0.12  -0.01  -0.00     0.00   0.01   0.06
  26   1    -0.00  -0.00   0.01     0.04  -0.00  -0.00     0.00   0.00   0.01
  27   1     0.00  -0.00  -0.06     0.03   0.00  -0.00    -0.00   0.00   0.05
  28   1    -0.00  -0.00  -0.06     0.03  -0.00   0.00     0.00   0.00   0.05
  29   1     0.00  -0.00   0.01     0.04   0.00   0.00    -0.00   0.00   0.01
  30   1     0.00  -0.00   0.06     0.03   0.00   0.00    -0.00   0.00  -0.05
  31   1     0.00  -0.00   0.05     0.03   0.00  -0.00    -0.00   0.00  -0.06
  32   1     0.00   0.00  -0.01     0.04  -0.00  -0.00    -0.00  -0.00   0.00
  33   1     0.00   0.00  -0.04     0.04   0.00   0.00    -0.00  -0.00   0.05
  34   1    -0.00   0.00  -0.01     0.04   0.00   0.00     0.00  -0.00   0.00
  35   1    -0.00  -0.00   0.05     0.03  -0.00   0.00     0.00   0.00  -0.06
  36   1    -0.00  -0.00   0.06     0.03  -0.00  -0.00     0.00   0.00  -0.05
  37  28    -0.00   0.00  -0.04    -0.27  -0.00   0.00    -0.00   0.01  -0.07
  38   6    -0.01  -0.01  -0.01    -0.12   0.01  -0.01    -0.01  -0.00  -0.04
  39   6    -0.01   0.01  -0.12    -0.12   0.00  -0.01    -0.01   0.01  -0.11
  40   6    -0.00   0.01  -0.13    -0.10   0.01  -0.00    -0.00   0.01  -0.11
  41   6    -0.00   0.02  -0.17    -0.09   0.00   0.00    -0.00   0.01  -0.11
  42   6     0.00   0.01  -0.13    -0.10  -0.00   0.00     0.00   0.01  -0.11
  43   6     0.01   0.01  -0.12    -0.12   0.00   0.01     0.01   0.01  -0.11
  44   6     0.01  -0.01  -0.01    -0.13  -0.01   0.01     0.01  -0.00  -0.04
  45   6     0.01  -0.01   0.03    -0.12  -0.01  -0.00     0.00  -0.01   0.00
  46   7     0.00  -0.00  -0.05    -0.12  -0.01  -0.00     0.00   0.00  -0.06
  47   6     0.01  -0.03   0.12    -0.12  -0.02  -0.00     0.00  -0.02   0.10
  48   6     0.01  -0.02   0.10    -0.13  -0.01  -0.01     0.00  -0.02   0.09
  49   6     0.01  -0.01   0.11    -0.12  -0.00  -0.01     0.00  -0.02   0.12
  50   6     0.01   0.01   0.01    -0.13   0.00  -0.01     0.00   0.00   0.01
  51   6     0.00   0.01  -0.04    -0.13  -0.00  -0.00     0.00   0.01  -0.05
  52   7     0.00  -0.00   0.01    -0.14  -0.01  -0.00     0.00   0.00  -0.00
  53   6    -0.00   0.02  -0.09    -0.14  -0.00   0.00    -0.00   0.02  -0.11
  54   6    -0.01   0.01  -0.04    -0.13  -0.00   0.00    -0.01   0.01  -0.05
  55   6    -0.01   0.00   0.01    -0.13  -0.00   0.01    -0.01   0.00   0.01
  56   6    -0.01  -0.02   0.11    -0.12   0.00   0.01    -0.00  -0.02   0.12
  57   6    -0.01  -0.02   0.10    -0.13   0.01   0.00    -0.00  -0.02   0.09
  58   7    -0.01  -0.00   0.01    -0.14   0.01   0.00    -0.00  -0.00  -0.00
  59   6    -0.01  -0.03   0.12    -0.12   0.02   0.00    -0.00  -0.02   0.10
  60   6    -0.01  -0.02   0.03    -0.12   0.02  -0.00    -0.01  -0.01   0.00
  61   7    -0.00  -0.00  -0.05    -0.12   0.01   0.00    -0.00   0.00  -0.06
  62   1    -0.00  -0.01   0.01    -0.04   0.00  -0.00    -0.00  -0.00  -0.01
  63   1    -0.00   0.00  -0.05    -0.03  -0.00  -0.00    -0.00   0.00  -0.05
  64   1     0.00   0.00  -0.05    -0.03   0.00   0.00     0.00   0.00  -0.05
  65   1     0.00  -0.01   0.01    -0.04  -0.00   0.00     0.00  -0.00  -0.01
  66   1     0.00  -0.01   0.06    -0.03  -0.00  -0.00     0.00  -0.01   0.05
  67   1     0.00  -0.01   0.05    -0.03  -0.00  -0.00     0.00  -0.01   0.06
  68   1     0.00   0.00  -0.01    -0.04   0.00  -0.00     0.00   0.00  -0.00
  69   1    -0.00   0.01  -0.04    -0.04  -0.00   0.00    -0.00   0.01  -0.04
  70   1    -0.00   0.00  -0.01    -0.04  -0.00   0.00    -0.00   0.00  -0.00
  71   1    -0.00  -0.01   0.05    -0.03   0.00   0.00    -0.00  -0.01   0.06
  72   1    -0.00  -0.01   0.06    -0.03   0.00  -0.00    -0.00  -0.01   0.05
  73   6     0.00  -0.01  -0.18     0.08  -0.00  -0.00    -0.00   0.00   0.03
  74   6     0.00   0.00  -0.11     0.08  -0.00  -0.00     0.00  -0.02  -0.13
  75   6     0.00   0.01  -0.02     0.07  -0.00  -0.00     0.00  -0.04  -0.22
  76   6     0.00   0.02   0.09     0.07  -0.00  -0.00     0.00  -0.05  -0.27
  77   6     0.00   0.03   0.17     0.06  -0.00  -0.00     0.00  -0.04  -0.23
  78   6     0.00   0.03   0.21     0.06  -0.00  -0.00     0.00  -0.02  -0.11
  79   6    -0.00   0.02   0.21    -0.06   0.00  -0.00    -0.00   0.01   0.12
  80   6    -0.00   0.02   0.17    -0.06   0.00  -0.00    -0.00   0.01   0.24
  81   6    -0.00   0.02   0.10    -0.07   0.00  -0.00    -0.00   0.00   0.27
  82   6    -0.00   0.02  -0.02    -0.07   0.00  -0.00    -0.00  -0.01   0.22
  83   6    -0.00   0.02  -0.11    -0.08   0.00  -0.00    -0.00  -0.01   0.12
  84   6    -0.00   0.02  -0.18    -0.08   0.00   0.00    -0.00  -0.00  -0.03
  85  28    -0.00   0.00   0.06     0.00  -0.00  -0.00     0.00   0.01   0.00
  86   6    -0.00  -0.01  -0.08     0.00  -0.01  -0.01     0.01   0.02   0.15
  87   6    -0.00   0.01   0.07     0.01  -0.00  -0.01     0.01   0.01   0.11
  88   6    -0.00   0.01   0.12     0.03  -0.01  -0.01     0.00   0.00   0.04
  89   6     0.00   0.02   0.18     0.05  -0.00  -0.00     0.00  -0.00  -0.01
  90   6     0.00   0.01   0.12     0.03   0.00   0.00    -0.00   0.00   0.04
  91   6     0.00   0.01   0.07     0.01  -0.01   0.01    -0.00   0.01   0.11
  92   6     0.00  -0.01  -0.08    -0.00   0.01   0.01    -0.01   0.02   0.15
  93   6     0.00  -0.01  -0.10     0.00   0.03   0.00    -0.00   0.01   0.08
  94   7     0.00   0.00   0.02     0.03   0.02  -0.00    -0.00   0.01   0.04
  95   6     0.00  -0.02  -0.18    -0.00   0.04   0.00    -0.00   0.00  -0.00
  96   6     0.00  -0.01  -0.10    -0.01   0.03  -0.00     0.00  -0.00  -0.08
  97   6     0.00  -0.01  -0.08    -0.00   0.01  -0.01     0.00  -0.01  -0.15
  98   6    -0.00   0.00   0.07    -0.01  -0.00  -0.01     0.00  -0.01  -0.11
  99   6    -0.00   0.01   0.11    -0.03   0.01  -0.01     0.00   0.00  -0.04
 100   7    -0.00  -0.00   0.02    -0.03   0.03  -0.00     0.00   0.00  -0.04
 101   6    -0.00   0.01   0.18    -0.05   0.00  -0.00    -0.00   0.00   0.01
 102   6     0.00   0.01   0.11    -0.03  -0.00   0.00     0.00   0.00  -0.04
 103   6    -0.00   0.00   0.07    -0.01   0.01   0.01    -0.00  -0.01  -0.11
 104   6    -0.00  -0.01  -0.08     0.00  -0.01   0.02    -0.00  -0.01  -0.15
 105   6    -0.00  -0.01  -0.10    -0.00  -0.02   0.01     0.00  -0.00  -0.08
 106   7    -0.00  -0.00   0.02    -0.03  -0.02   0.01     0.00  -0.00  -0.04
 107   6    -0.01  -0.02  -0.18     0.00  -0.04   0.01     0.00   0.00  -0.00
 108   6    -0.00  -0.01  -0.10     0.01  -0.03  -0.00     0.01   0.01   0.08
 109   7    -0.00   0.00   0.02     0.03  -0.03  -0.00     0.00   0.01   0.04
 110   1    -0.00  -0.01  -0.04    -0.00  -0.00  -0.00     0.00   0.01   0.06
 111   1     0.00   0.00   0.04     0.00   0.00  -0.01     0.00   0.00   0.04
 112   1     0.00   0.00   0.04     0.00  -0.01   0.00    -0.00   0.00   0.04
 113   1     0.00  -0.01  -0.04    -0.01   0.00   0.00    -0.00   0.01   0.06
 114   1     0.00  -0.01  -0.08    -0.00   0.01   0.00    -0.00   0.00  -0.00
 115   1     0.00  -0.01  -0.05     0.00   0.00  -0.00     0.00  -0.00  -0.06
 116   1    -0.00   0.00   0.04    -0.00  -0.00  -0.00     0.00  -0.00  -0.04
 117   1     0.00   0.00   0.04    -0.00   0.01   0.00    -0.00  -0.00  -0.04
 118   1    -0.00  -0.01  -0.05     0.01  -0.00   0.01    -0.00  -0.00  -0.06
 119   1    -0.00  -0.01  -0.08     0.00  -0.01   0.00     0.00   0.00  -0.00
                     19                     20                     21
                        a                      a                      a 
 Frequencies --    78.0182                88.4462                93.3055
 Red. masses --    14.0441                13.0682                12.5290
 Frc consts  --     0.0000                 0.0000                 0.0000
 IR Inten    --     2.2559                 0.6979                 1.3179
 Raman Activ --     0.0000                 0.0000                 0.0000
 Depolar     --     0.0000                 0.0000                 0.0000
 Atom AN      X      Y      Z        X      Y      Z        X      Y      Z
   1  28     0.00   0.00  -0.09    -0.01   0.05  -0.00     0.01  -0.05   0.06
   2   6     0.00   0.00  -0.06     0.03   0.05   0.01    -0.03  -0.05   0.01
   3   6     0.00   0.00  -0.09     0.02   0.06   0.01    -0.02  -0.06   0.01
   4   6     0.00   0.00  -0.07     0.00   0.05  -0.00    -0.00  -0.06   0.01
   5   6     0.00   0.00  -0.05    -0.00   0.05  -0.01     0.00  -0.06   0.00
   6   6    -0.00   0.00  -0.07    -0.01   0.05  -0.00     0.01  -0.06   0.01
   7   6    -0.00   0.00  -0.09    -0.03   0.06   0.01     0.03  -0.07   0.01
   8   6    -0.00   0.00  -0.06    -0.04   0.05   0.01     0.04  -0.05   0.01
   9   6    -0.00   0.00  -0.01    -0.03   0.03   0.00     0.03  -0.04   0.01
  10   7    -0.00   0.00  -0.05    -0.01   0.04  -0.00     0.01  -0.04   0.02
  11   6     0.00  -0.00   0.08    -0.04   0.02  -0.00     0.04  -0.02  -0.02
  12   6     0.00  -0.00   0.09    -0.03   0.00  -0.01     0.04  -0.00  -0.02
  13   6     0.00  -0.00   0.13    -0.04  -0.01  -0.01     0.04   0.01  -0.05
  14   6     0.00  -0.00   0.02    -0.03  -0.02   0.00     0.03   0.03  -0.02
  15   6     0.00   0.00  -0.06    -0.02  -0.01   0.01     0.02   0.02   0.02
  16   7     0.00  -0.00  -0.01    -0.02   0.00  -0.00     0.02  -0.00   0.02
  17   6     0.00   0.00  -0.12    -0.01  -0.02   0.01     0.00   0.02   0.03
  18   6     0.00   0.00  -0.06     0.01  -0.01   0.01    -0.01   0.02   0.02
  19   6    -0.00  -0.00   0.02     0.02  -0.02   0.00    -0.02   0.03  -0.02
  20   6    -0.00  -0.00   0.13     0.03  -0.01  -0.01    -0.04   0.01  -0.05
  21   6    -0.00  -0.00   0.09     0.02   0.01  -0.01    -0.03  -0.01  -0.02
  22   7    -0.00   0.00  -0.01     0.01   0.00  -0.00    -0.01  -0.00   0.02
  23   6    -0.00  -0.00   0.08     0.03   0.02  -0.00    -0.03  -0.02  -0.02
  24   6     0.00   0.00  -0.01     0.02   0.04   0.00    -0.02  -0.04   0.01
  25   7     0.00   0.00  -0.05     0.01   0.04  -0.00    -0.01  -0.05   0.02
  26   1     0.00   0.00  -0.02     0.01   0.01   0.00    -0.01  -0.02   0.00
  27   1     0.00   0.00  -0.04     0.00   0.02   0.00    -0.01  -0.02   0.00
  28   1    -0.00   0.00  -0.04    -0.01   0.02   0.00     0.01  -0.02   0.00
  29   1    -0.00   0.00  -0.02    -0.01   0.01   0.00     0.02  -0.02   0.00
  30   1     0.00  -0.00   0.04    -0.02   0.00  -0.00     0.02  -0.00  -0.01
  31   1     0.00  -0.00   0.06    -0.02  -0.00  -0.00     0.02   0.01  -0.02
  32   1     0.00  -0.00   0.00    -0.01  -0.01   0.00     0.01   0.01  -0.01
  33   1     0.00   0.00  -0.05    -0.00  -0.01   0.01     0.00   0.01   0.01
  34   1    -0.00  -0.00   0.00     0.01  -0.01   0.00    -0.01   0.01  -0.01
  35   1    -0.00  -0.00   0.06     0.01  -0.00  -0.00    -0.01   0.00  -0.02
  36   1    -0.00  -0.00   0.04     0.01   0.01  -0.00    -0.01  -0.01  -0.01
  37  28    -0.00   0.02  -0.09    -0.01   0.06   0.01     0.01   0.05  -0.02
  38   6     0.00   0.01  -0.06     0.03   0.06  -0.00     0.03   0.04  -0.02
  39   6     0.00   0.02  -0.10     0.02   0.07   0.00     0.02   0.05  -0.01
  40   6     0.00   0.02  -0.08     0.00   0.06   0.01     0.01   0.04   0.00
  41   6    -0.00   0.01  -0.05    -0.00   0.06   0.02    -0.00   0.04   0.02
  42   6    -0.00   0.02  -0.08    -0.01   0.06   0.01    -0.00   0.04   0.00
  43   6    -0.00   0.02  -0.10    -0.03   0.07   0.00    -0.01   0.05  -0.01
  44   6    -0.00   0.01  -0.06    -0.04   0.06  -0.00    -0.02   0.05  -0.02
  45   6    -0.00   0.01  -0.01    -0.03   0.04   0.00    -0.02   0.03  -0.01
  46   7    -0.00   0.01  -0.05    -0.02   0.04   0.01    -0.01   0.04  -0.00
  47   6    -0.00  -0.01   0.09    -0.05   0.02   0.01    -0.03   0.01   0.02
  48   6    -0.00  -0.01   0.09    -0.04   0.00   0.01    -0.02   0.00   0.03
  49   6    -0.01  -0.02   0.13    -0.05  -0.02   0.01    -0.03  -0.02   0.04
  50   6    -0.00  -0.00   0.02    -0.04  -0.02  -0.01    -0.02  -0.02   0.00
  51   6    -0.00   0.01  -0.06    -0.02  -0.01  -0.01    -0.00  -0.01  -0.02
  52   7    -0.00   0.00  -0.01    -0.02   0.00  -0.00    -0.01   0.00  -0.01
  53   6    -0.00   0.02  -0.12    -0.01  -0.02  -0.02     0.01  -0.01  -0.05
  54   6     0.00   0.01  -0.06     0.01  -0.01  -0.01     0.02  -0.01  -0.02
  55   6     0.00  -0.01   0.02     0.03  -0.02  -0.01     0.03  -0.02   0.00
  56   6     0.01  -0.02   0.13     0.04  -0.01   0.01     0.04  -0.02   0.04
  57   6     0.01  -0.02   0.09     0.03   0.00   0.01     0.03  -0.00   0.03
  58   7     0.00   0.00  -0.01     0.01   0.00  -0.00     0.02   0.00  -0.01
  59   6     0.01  -0.01   0.09     0.04   0.02   0.01     0.04   0.01   0.02
  60   6     0.00   0.00  -0.01     0.03   0.04   0.00     0.03   0.03  -0.01
  61   7     0.00   0.01  -0.05     0.01   0.05   0.01     0.01   0.03  -0.00
  62   1     0.00   0.00  -0.02     0.01   0.02  -0.00     0.01   0.01  -0.01
  63   1    -0.00   0.01  -0.04     0.01   0.02  -0.00     0.01   0.02  -0.00
  64   1     0.00   0.01  -0.04    -0.01   0.02  -0.00    -0.00   0.02  -0.01
  65   1    -0.00   0.00  -0.02    -0.02   0.02  -0.00    -0.01   0.01  -0.01
  66   1    -0.00  -0.01   0.04    -0.02   0.00   0.00    -0.01   0.00   0.01
  67   1    -0.00  -0.01   0.07    -0.02  -0.01   0.01    -0.01  -0.01   0.02
  68   1    -0.00  -0.00   0.00    -0.01  -0.01  -0.00    -0.01  -0.01  -0.00
  69   1    -0.00   0.01  -0.05    -0.00  -0.01  -0.01     0.00  -0.01  -0.02
  70   1     0.00  -0.00   0.00     0.01  -0.01  -0.00     0.01  -0.01  -0.00
  71   1     0.00  -0.01   0.07     0.02  -0.01   0.01     0.01  -0.01   0.02
  72   1     0.00  -0.01   0.04     0.02   0.01   0.00     0.01   0.00   0.01
  73   6    -0.00   0.01   0.06     0.00   0.01  -0.02    -0.00  -0.01  -0.03
  74   6    -0.00   0.00   0.21     0.00  -0.23  -0.02    -0.00   0.27  -0.07
  75   6    -0.00   0.00   0.26     0.00  -0.33  -0.01    -0.00   0.38  -0.07
  76   6    -0.00  -0.01   0.21     0.00  -0.34   0.01    -0.00   0.37  -0.04
  77   6    -0.00  -0.01   0.10     0.00  -0.25   0.02    -0.00   0.26  -0.00
  78   6    -0.00  -0.02  -0.07     0.01  -0.02   0.03    -0.01  -0.03   0.05
  79   6     0.00  -0.01  -0.07     0.01  -0.02  -0.02    -0.00   0.04  -0.05
  80   6    -0.00  -0.05   0.10     0.00  -0.29  -0.05    -0.00  -0.19  -0.05
  81   6    -0.00  -0.07   0.21     0.00  -0.39  -0.06    -0.00  -0.29  -0.03
  82   6    -0.00  -0.08   0.26     0.00  -0.38  -0.04    -0.00  -0.31   0.01
  83   6    -0.00  -0.06   0.21     0.00  -0.26  -0.01    -0.00  -0.23   0.04
  84   6    -0.00  -0.01   0.06     0.00   0.01   0.02    -0.00  -0.00   0.05
  85  28    -0.00  -0.01  -0.20     0.02   0.11   0.07    -0.02  -0.00   0.07
  86   6     0.01   0.01   0.09     0.02   0.03  -0.06     0.06  -0.07  -0.05
  87   6     0.01  -0.00  -0.05     0.02   0.03  -0.02     0.04  -0.09  -0.02
  88   6     0.00  -0.01  -0.12     0.02   0.04   0.02     0.01  -0.07   0.03
  89   6    -0.00  -0.02  -0.15     0.01   0.04   0.04    -0.01  -0.07   0.05
  90   6    -0.00  -0.01  -0.12     0.00   0.04   0.02    -0.02  -0.07   0.03
  91   6    -0.01  -0.00  -0.05     0.00   0.03  -0.02    -0.05  -0.09  -0.02
  92   6    -0.01   0.01   0.09     0.00   0.03  -0.06    -0.07  -0.07  -0.05
  93   6    -0.01   0.02   0.07     0.00   0.03  -0.03    -0.06  -0.04  -0.02
  94   7    -0.01  -0.00  -0.07     0.00   0.04   0.02    -0.03  -0.04   0.02
  95   6    -0.01   0.03   0.16     0.00   0.03  -0.04    -0.08  -0.01  -0.01
  96   6    -0.01   0.02   0.07     0.01   0.04  -0.01    -0.06   0.02   0.01
  97   6    -0.01   0.02   0.09     0.01   0.04  -0.01    -0.08   0.05   0.00
  98   6    -0.00   0.01  -0.05     0.01   0.05   0.01    -0.05   0.07  -0.01
  99   6     0.00   0.00  -0.12     0.01   0.05   0.03    -0.02   0.06  -0.00
 100   7    -0.00   0.01  -0.07     0.01   0.05   0.02    -0.03   0.03   0.02
 101   6     0.00   0.00  -0.15     0.01   0.04   0.02    -0.00   0.07  -0.02
 102   6     0.00   0.00  -0.12     0.00   0.05   0.03     0.01   0.06  -0.00
 103   6     0.00   0.01  -0.05     0.01   0.05   0.01     0.04   0.07  -0.01
 104   6     0.01   0.02   0.09     0.01   0.04  -0.01     0.06   0.05   0.00
 105   6     0.01   0.02   0.07     0.01   0.04  -0.01     0.05   0.03   0.01
 106   7     0.00   0.01  -0.07     0.00   0.05   0.02     0.02   0.03   0.02
 107   6     0.01   0.03   0.16     0.01   0.03  -0.04     0.06  -0.01  -0.01
 108   6     0.01   0.01   0.07     0.01   0.04  -0.03     0.04  -0.04  -0.02
 109   7     0.00  -0.00  -0.07     0.02   0.05   0.02     0.01  -0.04   0.02
 110   1     0.00   0.01   0.05     0.01   0.01  -0.03     0.02  -0.02  -0.03
 111   1     0.00  -0.00  -0.02     0.01   0.01  -0.01     0.01  -0.03  -0.01
 112   1    -0.00  -0.00  -0.02    -0.00   0.01  -0.01    -0.02  -0.03  -0.01
 113   1    -0.00   0.01   0.05    -0.00   0.01  -0.03    -0.03  -0.02  -0.03
 114   1    -0.00   0.01   0.08     0.00   0.01  -0.02    -0.03  -0.00  -0.01
 115   1    -0.00   0.01   0.05     0.00   0.01  -0.01    -0.03   0.02   0.00
 116   1    -0.00   0.00  -0.02     0.00   0.01   0.00    -0.02   0.03  -0.01
 117   1     0.00   0.00  -0.02     0.00   0.01   0.00     0.01   0.03  -0.01
 118   1     0.00   0.01   0.05     0.00   0.01  -0.01     0.02   0.02   0.00
 119   1     0.00   0.01   0.08     0.00   0.01  -0.02     0.03  -0.00  -0.01
                     22                     23                     24
                        a                      a                      a 
 Frequencies --    96.0507                99.7529                99.8539
 Red. masses --    19.4944                29.0633                29.1344
 Frc consts  --     0.0000                 0.0000                 0.0000
 IR Inten    --     0.1809                 0.8084                10.9321
 Raman Activ --     0.0000                 0.0000                 0.0000
 Depolar     --     0.0000                 0.0000                 0.0000
 Atom AN      X      Y      Z        X      Y      Z        X      Y      Z
   1  28     0.18   0.01   0.01    -0.01   0.00   0.58    -0.00  -0.00  -0.21
   2   6     0.09  -0.01  -0.01     0.01  -0.01  -0.23    -0.01   0.00   0.09
   3   6     0.06   0.01  -0.00     0.01  -0.00  -0.22    -0.01   0.00   0.08
   4   6     0.03  -0.01   0.00     0.00   0.00   0.01    -0.00   0.00  -0.00
   5   6    -0.01   0.01  -0.00    -0.00   0.00   0.02     0.00  -0.00  -0.01
[...]
 119   1    -0.00  -0.00   0.00     0.00   0.00  -0.00     0.00  -0.00   0.00
                    346                    347                    348
                        a                      a                      a 
 Frequencies --  3168.9591              3169.4008              3169.4634
 Red. masses --     1.9728                 1.9740                 1.9739
 Frc consts  --     0.0000                 0.0000                 0.0000
 IR Inten    --     0.2153                 0.1637                 0.1375
 Raman Activ --     0.0000                 0.0000                 0.0000
 Depolar     --     0.0000                 0.0000                 0.0000
 Atom AN      X      Y      Z        X      Y      Z        X      Y      Z
   1  28     0.00   0.00   0.00     0.00  -0.00  -0.00     0.00  -0.00   0.00
   2   6     0.00  -0.01   0.00    -0.00   0.02  -0.00    -0.01   0.14  -0.00
   3   6     0.02  -0.00   0.00    -0.03   0.00  -0.00    -0.18   0.01  -0.01
   4   6     0.00   0.00  -0.00    -0.00  -0.00   0.00    -0.00  -0.01   0.00
   5   6     0.00  -0.00   0.00    -0.00   0.00  -0.00    -0.00   0.00  -0.00
   6   6    -0.00   0.00  -0.00    -0.00   0.00  -0.00    -0.00   0.00  -0.00
   7   6    -0.03  -0.00   0.00    -0.02  -0.00   0.00    -0.14  -0.01   0.00
   8   6    -0.00  -0.02   0.00    -0.00  -0.02   0.00    -0.00  -0.11   0.00
   9   6     0.00  -0.00  -0.00     0.00  -0.00  -0.00     0.00  -0.00  -0.00
  10   7     0.00   0.00  -0.00     0.00   0.00  -0.00     0.00   0.00  -0.00
  11   6    -0.00  -0.00   0.00    -0.00  -0.00  -0.00    -0.00  -0.00   0.00
  12   6    -0.00  -0.00   0.00    -0.00   0.00   0.00    -0.00   0.00   0.00
  13   6     0.00  -0.00  -0.00     0.00  -0.00  -0.00     0.00  -0.00  -0.00
  14   6     0.00  -0.00  -0.00     0.00   0.00  -0.00    -0.00   0.00   0.00
  15   6     0.00   0.00   0.00    -0.00   0.00   0.00    -0.00   0.00   0.00
  16   7    -0.00   0.00   0.00     0.00   0.00  -0.00     0.00   0.00  -0.00
  17   6    -0.00  -0.00  -0.00     0.00   0.00   0.00     0.00   0.00   0.00
  18   6    -0.00   0.00  -0.00     0.00  -0.00  -0.00     0.00  -0.00  -0.00
  19   6    -0.00  -0.00  -0.00     0.00   0.00   0.00     0.00   0.00   0.00
  20   6    -0.00  -0.00  -0.00     0.00   0.00   0.00     0.00   0.01   0.00
  21   6     0.00  -0.00   0.00    -0.00   0.00  -0.00    -0.00  -0.00  -0.00
  22   7     0.00   0.00   0.00     0.00  -0.00   0.00     0.00  -0.00   0.00
  23   6     0.00  -0.00   0.00    -0.00   0.00  -0.00    -0.00   0.00  -0.00
  24   6    -0.00  -0.00  -0.00     0.00   0.00   0.00     0.01   0.00   0.00
  25   7    -0.00   0.00  -0.00     0.00  -0.00   0.00     0.00  -0.00   0.00
  26   1    -0.00   0.04  -0.00     0.01  -0.08   0.00     0.05  -0.45   0.01
  27   1    -0.05   0.01  -0.00     0.10  -0.01   0.00     0.59  -0.06   0.02
  28   1     0.09   0.01  -0.00     0.07   0.01  -0.00     0.44   0.05  -0.01
  29   1     0.01   0.07  -0.00     0.01   0.05  -0.00     0.03   0.34  -0.01
  30   1    -0.00   0.00   0.00    -0.00   0.00   0.00    -0.00   0.01   0.00
  31   1    -0.00   0.01   0.00    -0.00   0.00   0.00    -0.00   0.00   0.00
  32   1    -0.01   0.00   0.00    -0.00   0.00   0.00     0.00  -0.00  -0.00
  33   1     0.00  -0.00   0.00    -0.00   0.00  -0.00    -0.00   0.00  -0.00
  34   1     0.01   0.00   0.00    -0.00  -0.00  -0.00    -0.01  -0.00  -0.00
  35   1     0.00   0.01   0.00    -0.00  -0.00  -0.00    -0.00  -0.02  -0.00
  36   1     0.00   0.00   0.00    -0.00  -0.00   0.00    -0.00  -0.01  -0.00
  37  28     0.00  -0.00  -0.00     0.00   0.00   0.00    -0.00  -0.00  -0.00
  38   6    -0.00   0.02   0.00    -0.01   0.11   0.02     0.00  -0.02  -0.00
  39   6    -0.02   0.00   0.00    -0.15   0.01   0.01     0.03  -0.00  -0.00
  40   6    -0.00  -0.00  -0.00    -0.00  -0.01  -0.00     0.00   0.00   0.00
  41   6    -0.00   0.00   0.00    -0.00  -0.00  -0.00    -0.00   0.00   0.00
  42   6     0.00  -0.00  -0.00    -0.00   0.01   0.00     0.00  -0.00  -0.00
  43   6     0.02   0.00   0.00    -0.17  -0.01  -0.01     0.03   0.00   0.00
  44   6     0.00   0.01   0.00    -0.01  -0.13  -0.03     0.00   0.02   0.00
  45   6    -0.00   0.00   0.00     0.01  -0.00  -0.00    -0.00   0.00   0.00
  46   7    -0.00  -0.00  -0.00     0.00   0.00   0.00    -0.00  -0.00  -0.00
  47   6     0.00   0.00   0.00    -0.00  -0.00  -0.00     0.00   0.00   0.00
  48   6     0.00   0.00   0.00    -0.00   0.00   0.00     0.00  -0.00  -0.00
  49   6    -0.00   0.00   0.00     0.00  -0.01  -0.00    -0.00   0.00   0.00
  50   6    -0.00   0.00  -0.00     0.00  -0.00   0.00    -0.00  -0.00  -0.00
  51   6    -0.00  -0.00  -0.00     0.00   0.00   0.00     0.00  -0.00  -0.00
  52   7     0.00  -0.00  -0.00     0.00   0.00   0.00    -0.00  -0.00  -0.00
  53   6    -0.00   0.00   0.00     0.00  -0.00   0.00    -0.00  -0.00  -0.00
  54   6     0.00  -0.00  -0.00    -0.00  -0.00  -0.00     0.00   0.00   0.00
  55   6     0.00   0.00  -0.00     0.00   0.00  -0.00     0.00   0.00  -0.00
  56   6     0.00   0.00   0.00     0.00   0.00   0.00    -0.00  -0.00  -0.00
  57   6    -0.00   0.00   0.00    -0.00  -0.00  -0.00     0.00   0.00   0.00
  58   7    -0.00  -0.00  -0.00     0.00  -0.00  -0.00    -0.00   0.00   0.00
  59   6    -0.00   0.00   0.00    -0.00   0.00   0.00     0.00  -0.00  -0.00
  60   6     0.00   0.00   0.00     0.00   0.00   0.00    -0.00  -0.00  -0.00
  61   7     0.00  -0.00  -0.00     0.00  -0.00  -0.00    -0.00   0.00   0.00
  62   1     0.01  -0.06  -0.01     0.04  -0.36  -0.07    -0.01   0.06   0.01
  63   1     0.08  -0.01  -0.00     0.49  -0.05  -0.02    -0.09   0.01   0.00
  64   1    -0.06  -0.01  -0.00     0.56   0.06   0.02    -0.09  -0.01  -0.00
  65   1    -0.00  -0.05  -0.01     0.04   0.42   0.08    -0.01  -0.07  -0.01
  66   1     0.00  -0.00  -0.00    -0.00   0.01   0.00     0.00  -0.00  -0.00
  67   1     0.00  -0.01  -0.00    -0.00   0.02   0.00     0.00  -0.00  -0.00
  68   1     0.01  -0.00  -0.00    -0.01   0.00   0.00     0.00  -0.00  -0.00
  69   1     0.00   0.00   0.00    -0.00  -0.00   0.00     0.00  -0.00  -0.00
  70   1    -0.01  -0.00   0.00    -0.01  -0.00   0.00    -0.00  -0.00   0.00
  71   1    -0.00  -0.01  -0.00    -0.00  -0.01  -0.00     0.00   0.00   0.00
  72   1    -0.00  -0.00  -0.00    -0.00  -0.01  -0.00     0.00   0.00   0.00
  73   6    -0.00  -0.00   0.00    -0.00   0.00  -0.00    -0.00   0.00  -0.00
  74   6    -0.00   0.00  -0.00    -0.00  -0.00   0.00    -0.00  -0.00   0.00
  75   6     0.00  -0.00   0.00     0.00  -0.00   0.00     0.00  -0.00   0.00
  76   6    -0.00   0.00  -0.00    -0.00  -0.00   0.00    -0.00   0.00  -0.00
  77   6     0.00   0.00  -0.00     0.00  -0.00   0.00     0.00   0.00  -0.00
  78   6     0.00  -0.00   0.00     0.00   0.00  -0.00    -0.00  -0.00   0.00
  79   6    -0.00   0.00  -0.00    -0.00  -0.00  -0.00     0.00  -0.00   0.00
  80   6     0.00  -0.00   0.00     0.00  -0.00   0.00    -0.00   0.00  -0.00
  81   6    -0.00  -0.00   0.00    -0.00  -0.00  -0.00     0.00   0.00  -0.00
  82   6     0.00   0.00  -0.00     0.00   0.00   0.00    -0.00  -0.00   0.00
  83   6    -0.00  -0.00  -0.00    -0.00   0.00   0.00     0.00  -0.00  -0.00
  84   6    -0.00   0.00   0.00    -0.00  -0.00  -0.00     0.00   0.00   0.00
  85  28    -0.00  -0.00  -0.00     0.00  -0.00   0.00     0.00   0.00  -0.00
  86   6    -0.00  -0.08   0.01     0.00   0.01  -0.00     0.00   0.00  -0.00
  87   6    -0.11  -0.01   0.00     0.01   0.00  -0.00     0.01   0.00  -0.00
  88   6    -0.00   0.00  -0.00     0.00  -0.00   0.00     0.00  -0.00   0.00
  89   6    -0.00  -0.00   0.00    -0.00   0.00  -0.00    -0.00  -0.00   0.00
  90   6     0.00   0.00  -0.00    -0.00   0.00  -0.00     0.00   0.00  -0.00
  91   6     0.12  -0.01   0.00     0.00  -0.00   0.00     0.03  -0.00   0.00
  92   6     0.00  -0.09   0.01     0.00  -0.00   0.00     0.00  -0.02   0.00
  93   6    -0.00  -0.00   0.00    -0.00  -0.00   0.00    -0.00  -0.00   0.00
  94   7    -0.00   0.00  -0.00     0.00   0.00  -0.00    -0.00   0.00  -0.00
  95   6     0.00   0.00   0.00     0.00   0.00  -0.00     0.00  -0.00   0.00
  96   6    -0.00   0.00  -0.00    -0.00   0.00  -0.00     0.00  -0.00   0.00
  97   6     0.01   0.09  -0.01     0.00   0.01  -0.00    -0.00  -0.01   0.00
  98   6     0.12   0.01   0.00     0.02   0.00   0.00    -0.01  -0.00  -0.00
  99   6     0.00  -0.00   0.00     0.00  -0.00   0.00    -0.00   0.00  -0.00
 100   7    -0.00  -0.00   0.00    -0.00  -0.00   0.00     0.00   0.00  -0.00
 101   6     0.00   0.00  -0.00    -0.00  -0.00   0.00     0.00  -0.00   0.00
 102   6    -0.00  -0.00   0.00     0.00   0.00  -0.00     0.00   0.00  -0.00
 103   6    -0.11   0.01   0.00     0.02  -0.00  -0.00     0.01  -0.00  -0.00
 104   6    -0.00   0.09  -0.01     0.00  -0.01   0.00     0.00  -0.01   0.00
 105   6     0.00   0.00  -0.00    -0.00  -0.00   0.00    -0.00  -0.00   0.00
 106   7     0.00  -0.00   0.00    -0.00   0.00  -0.00    -0.00   0.00  -0.00
 107   6    -0.00   0.00   0.00     0.00  -0.00   0.00     0.00  -0.00   0.00
 108   6     0.00  -0.00  -0.00    -0.00   0.00  -0.00    -0.00   0.00   0.00
 109   7     0.00   0.00  -0.00    -0.00  -0.00   0.00    -0.00  -0.00   0.00
 110   1     0.03   0.25  -0.03    -0.00  -0.02   0.00    -0.00  -0.01   0.00
 111   1     0.36   0.04  -0.01    -0.02  -0.00   0.00    -0.02  -0.00   0.00
 112   1    -0.38   0.04  -0.01    -0.01   0.00  -0.00    -0.08   0.01  -0.00
 113   1    -0.03   0.27  -0.04    -0.00   0.00  -0.00    -0.01   0.06  -0.01
 114   1     0.00  -0.00   0.00     0.00  -0.00   0.00     0.00   0.00  -0.00
 115   1    -0.03  -0.28   0.03    -0.00  -0.04   0.00     0.00   0.04  -0.00
 116   1    -0.40  -0.04  -0.00    -0.06  -0.01  -0.00     0.05   0.01   0.00
 117   1     0.37  -0.04  -0.00    -0.06   0.01   0.00    -0.03   0.00   0.00
 118   1     0.03  -0.27   0.02    -0.00   0.04  -0.00    -0.00   0.03  -0.00
 119   1    -0.00  -0.00   0.00     0.00   0.00  -0.00     0.00   0.00  -0.00
                    349                    350                    351
                        a                      a                      a 
 Frequencies --  3169.6056              3169.8503              3169.9883
 Red. masses --     1.9741                 1.9731                 1.9740
 Frc consts  --     0.0000                 0.0000                 0.0000
 IR Inten    --   157.1801                51.8897                 1.0125
 Raman Activ --     0.0000                 0.0000                 0.0000
 Depolar     --     0.0000                 0.0000                 0.0000
 Atom AN      X      Y      Z        X      Y      Z        X      Y      Z
   1  28     0.00  -0.00   0.00     0.00   0.00  -0.00    -0.00  -0.00  -0.00
   2   6    -0.00   0.02  -0.00    -0.00   0.01  -0.00     0.00  -0.01   0.00
   3   6    -0.03   0.00  -0.00    -0.01   0.00  -0.00     0.01  -0.00   0.00
   4   6    -0.00  -0.00   0.00    -0.00  -0.00   0.00     0.00   0.00  -0.00
   5   6    -0.00   0.00  -0.00    -0.00   0.00  -0.00     0.00  -0.00   0.00
   6   6    -0.00   0.00  -0.00    -0.00   0.00  -0.00     0.00  -0.00   0.00
   7   6    -0.00  -0.00   0.00    -0.01  -0.00   0.00     0.01   0.00  -0.00
   8   6    -0.00  -0.00   0.00    -0.00  -0.01   0.00     0.00   0.01  -0.00
   9   6     0.00  -0.00  -0.00     0.00  -0.00  -0.00    -0.00   0.00   0.00
  10   7     0.00   0.00   0.00     0.00   0.00   0.00    -0.00  -0.00   0.00
  11   6     0.00  -0.00   0.00     0.00  -0.00  -0.00    -0.00   0.00   0.00
  12   6     0.00   0.00   0.00    -0.00  -0.00   0.00    -0.00  -0.00  -0.00
  13   6    -0.00   0.00   0.00     0.00  -0.00  -0.00     0.00  -0.00  -0.00
  14   6    -0.00   0.00   0.00     0.00  -0.00  -0.00     0.00  -0.00  -0.00
  15   6    -0.00  -0.00   0.00     0.00   0.00   0.00     0.00   0.00   0.00
  16   7     0.00  -0.00  -0.00    -0.00   0.00   0.00    -0.00   0.00   0.00
  17   6    -0.00   0.00   0.00     0.00   0.00   0.00     0.00   0.00   0.00
  18   6     0.00  -0.00  -0.00     0.00  -0.00  -0.00     0.00  -0.00   0.00
  19   6     0.00   0.00   0.00     0.00   0.00   0.00     0.00   0.00   0.00
  20   6     0.00   0.00   0.00     0.00   0.00   0.00     0.00   0.00   0.00
  21   6    -0.00  -0.00  -0.00    -0.00   0.00  -0.00    -0.00   0.00   0.00
  22   7    -0.00  -0.00   0.00    -0.00  -0.00  -0.00    -0.00   0.00  -0.00
  23   6    -0.00   0.00  -0.00    -0.00   0.00  -0.00    -0.00  -0.00  -0.00
  24   6     0.00   0.00   0.00     0.00   0.00   0.00    -0.00  -0.00  -0.00
  25   7     0.00  -0.00   0.00     0.00  -0.00   0.00    -0.00   0.00  -0.00
  26   1     0.01  -0.06   0.00     0.00  -0.03   0.00    -0.00   0.03  -0.00
  27   1     0.09  -0.01   0.00     0.04  -0.00   0.00    -0.04   0.00  -0.00
  28   1     0.01   0.00  -0.00     0.03   0.00  -0.00    -0.03  -0.00   0.00
  29   1     0.00   0.01  -0.00     0.00   0.03  -0.00    -0.00  -0.02   0.00
  30   1    -0.00   0.00   0.00    -0.00   0.00   0.00     0.00  -0.00  -0.00
  31   1     0.00  -0.00  -0.00    -0.00   0.01   0.00    -0.00   0.01   0.00
  32   1     0.00  -0.00  -0.00    -0.01   0.00   0.00    -0.01   0.00   0.00
  33   1     0.00   0.00   0.00    -0.00  -0.00  -0.00    -0.00  -0.00  -0.00
  34   1    -0.00  -0.00  -0.00    -0.01  -0.00  -0.00    -0.01  -0.00  -0.00
  35   1    -0.00  -0.00  -0.00    -0.00  -0.01  -0.00    -0.00  -0.01  -0.00
  36   1    -0.00  -0.00  -0.00    -0.00  -0.00  -0.00     0.00   0.00   0.00
  37  28    -0.00  -0.00   0.00     0.00   0.00   0.00     0.00  -0.00   0.00
  38   6    -0.00   0.00   0.00    -0.00   0.01   0.00    -0.00   0.01   0.00
  39   6    -0.00   0.00   0.00    -0.01   0.00   0.00    -0.01   0.00   0.00
  40   6    -0.00  -0.00  -0.00    -0.00  -0.00  -0.00    -0.00  -0.00  -0.00
  41   6     0.00   0.00   0.00    -0.00  -0.00  -0.00    -0.00   0.00   0.00
  42   6     0.00  -0.00  -0.00    -0.00   0.00   0.00    -0.00   0.00   0.00
  43   6     0.01   0.00   0.00    -0.01  -0.00  -0.00    -0.01  -0.00  -0.00
  44   6     0.00   0.01   0.00    -0.00  -0.01  -0.00    -0.00  -0.01  -0.00
  45   6    -0.00   0.00   0.00     0.00  -0.00  -0.00     0.00  -0.00  -0.00
  46   7    -0.00  -0.00  -0.00     0.00   0.00   0.00     0.00   0.00   0.00
  47   6     0.00   0.00   0.00    -0.00  -0.00  -0.00     0.00  -0.00  -0.00
  48   6     0.00   0.00   0.00    -0.00  -0.00  -0.00     0.00   0.00   0.00
  49   6    -0.00   0.00   0.00     0.00  -0.00  -0.00    -0.00   0.00   0.00
  50   6    -0.00   0.00  -0.00     0.00  -0.00   0.00    -0.00   0.00  -0.00
  51   6    -0.00  -0.00  -0.00     0.00   0.00   0.00    -0.00  -0.00  -0.00
  52   7     0.00  -0.00  -0.00    -0.00   0.00   0.00     0.00  -0.00   0.00
  53   6    -0.00   0.00   0.00     0.00   0.00  -0.00    -0.00  -0.00   0.00
  54   6     0.00  -0.00  -0.00     0.00  -0.00  -0.00    -0.00   0.00   0.00
  55   6     0.00   0.00  -0.00     0.00   0.00  -0.00    -0.00  -0.00   0.00
  56   6     0.00   0.00   0.00     0.00   0.00   0.00    -0.00  -0.00  -0.00
  57   6    -0.00   0.00   0.00    -0.00   0.00   0.00     0.00  -0.00  -0.00
  58   7    -0.00  -0.00  -0.00    -0.00  -0.00  -0.00     0.00   0.00  -0.00
  59   6    -0.00   0.00   0.00    -0.00   0.00   0.00     0.00   0.00   0.00
  60   6     0.00   0.00   0.00     0.00   0.00   0.00     0.00   0.00   0.00
  61   7     0.00  -0.00  -0.00     0.00  -0.00  -0.00     0.00  -0.00  -0.00
  62   1     0.00  -0.01  -0.00     0.00  -0.03  -0.01     0.00  -0.02  -0.00
  63   1     0.02  -0.00  -0.00     0.04  -0.00  -0.00     0.03  -0.00  -0.00
  64   1    -0.05  -0.01  -0.00     0.05   0.01   0.00     0.03   0.00   0.00
  65   1    -0.00  -0.03  -0.01     0.00   0.04   0.01     0.00   0.02   0.00
  66   1     0.00  -0.00  -0.00    -0.00   0.00   0.00    -0.00   0.00   0.00
  67   1     0.00  -0.00  -0.00    -0.00   0.01   0.00     0.00  -0.01  -0.00
  68   1     0.00  -0.00  -0.00    -0.01   0.00   0.00     0.01  -0.00  -0.00
  69   1     0.00   0.00   0.00    -0.00  -0.00   0.00     0.00   0.00  -0.00
  70   1    -0.00  -0.00   0.00    -0.01  -0.00   0.00     0.01   0.00  -0.00
  71   1    -0.00  -0.00  -0.00    -0.00  -0.01  -0.00     0.00   0.01   0.00
  72   1    -0.00  -0.00  -0.00    -0.00  -0.00  -0.00    -0.00  -0.00  -0.00
  73   6    -0.00   0.00  -0.00     0.00   0.00  -0.00     0.00   0.00   0.00
  74   6    -0.00  -0.00   0.00    -0.00  -0.00   0.00    -0.00   0.00  -0.00
  75   6     0.00   0.00  -0.00    -0.00  -0.00  -0.00     0.00   0.00  -0.00
  76   6    -0.00  -0.00   0.00     0.00   0.00   0.00    -0.00  -0.00   0.00
  77   6    -0.00  -0.00   0.00    -0.00   0.00  -0.00     0.00  -0.00   0.00
  78   6    -0.00   0.00  -0.00    -0.00   0.00   0.00     0.00   0.00  -0.00
  79   6    -0.00   0.00  -0.00    -0.00   0.00  -0.00    -0.00   0.00  -0.00
  80   6     0.00  -0.00   0.00    -0.00  -0.00   0.00    -0.00  -0.00   0.00
  81   6    -0.00  -0.00   0.00     0.00  -0.00  -0.00     0.00  -0.00  -0.00
  82   6     0.00   0.00  -0.00    -0.00   0.00  -0.00    -0.00   0.00  -0.00
  83   6     0.00  -0.00  -0.00    -0.00   0.00   0.00     0.00   0.00   0.00
  84   6     0.00   0.00   0.00     0.00  -0.00   0.00    -0.00  -0.00   0.00
  85  28    -0.00  -0.00   0.00     0.00  -0.00   0.00    -0.00  -0.00   0.00
  86   6     0.01   0.09  -0.01    -0.00  -0.08   0.01     0.01   0.10  -0.01
  87   6     0.11   0.01  -0.00    -0.11  -0.01   0.00     0.13   0.01  -0.00
  88   6     0.00  -0.00   0.00    -0.00   0.00  -0.00     0.00  -0.00   0.00
  89   6     0.00   0.00  -0.00    -0.00  -0.00   0.00     0.00   0.00  -0.00
  90   6    -0.00  -0.00   0.00    -0.00  -0.00   0.00     0.00   0.00  -0.00
  91   6    -0.12   0.01  -0.00    -0.11   0.01  -0.00     0.11  -0.01   0.00
  92   6    -0.00   0.10  -0.01    -0.00   0.08  -0.01     0.00  -0.09   0.01
  93   6     0.00   0.00  -0.00     0.00   0.00  -0.00    -0.00  -0.00   0.00
  94   7     0.00  -0.00   0.00     0.00  -0.00   0.00    -0.00   0.00  -0.00
  95   6     0.00   0.00  -0.00    -0.00  -0.00  -0.00     0.00  -0.00   0.00
  96   6    -0.00   0.00  -0.00     0.00  -0.00   0.00     0.00  -0.00   0.00
  97   6     0.01   0.10  -0.01    -0.00  -0.09   0.01    -0.00  -0.08   0.01
  98   6     0.12   0.01   0.00    -0.12  -0.01  -0.00    -0.10  -0.01  -0.00
  99   6     0.00  -0.00   0.00    -0.00   0.00  -0.00    -0.00   0.00  -0.00
 100   7    -0.00  -0.00   0.00     0.00   0.00  -0.00     0.00   0.00  -0.00
 101   6     0.00   0.00  -0.00    -0.00   0.00  -0.00    -0.00   0.00  -0.00
 102   6    -0.00  -0.00   0.00    -0.00  -0.00   0.00    -0.00  -0.00   0.00
 103   6    -0.10   0.01   0.00    -0.13   0.01   0.00    -0.12   0.01   0.00
 104   6    -0.00   0.08  -0.01    -0.00   0.10  -0.01    -0.00   0.09  -0.01
 105   6     0.00   0.00  -0.00     0.00   0.00  -0.00     0.00   0.00  -0.00
 106   7     0.00  -0.00   0.00     0.00  -0.00   0.00     0.00  -0.00   0.00
 107   6     0.00   0.00  -0.00    -0.00   0.00  -0.00     0.00   0.00  -0.00
 108   6    -0.00   0.00  -0.00     0.00  -0.00   0.00    -0.00   0.00  -0.00
 109   7    -0.00  -0.00   0.00     0.00   0.00  -0.00    -0.00  -0.00   0.00
 110   1    -0.03  -0.27   0.04     0.03   0.26  -0.03    -0.03  -0.32   0.04
 111   1    -0.36  -0.04   0.01     0.36   0.04  -0.01    -0.43  -0.04   0.01
 112   1     0.40  -0.04   0.01     0.35  -0.04   0.01    -0.37   0.04  -0.01
 113   1     0.03  -0.31   0.04     0.02  -0.26   0.03    -0.03   0.28  -0.04
 114   1    -0.00  -0.01   0.00    -0.00   0.00  -0.00     0.00   0.01  -0.00
 115   1    -0.03  -0.30   0.03     0.03   0.28  -0.03     0.03   0.24  -0.02
 116   1    -0.40  -0.04  -0.00     0.38   0.04   0.00     0.32   0.03   0.00
 117   1     0.32  -0.04  -0.00     0.42  -0.05  -0.00     0.38  -0.04  -0.00
 118   1     0.02  -0.25   0.02     0.03  -0.32   0.03     0.03  -0.29   0.03
 119   1    -0.00  -0.01   0.00    -0.00  -0.00   0.00    -0.00  -0.02   0.00
