      -----------------------------------------------------------      
     |                   =====================                   |     
     |                           x T B                           |     
     |                   =====================                   |     
     |                         S. Grimme                         |     
     |          Mulliken Center for Theoretical Chemistry        |     
     |                    University of Bonn                     |     
      -----------------------------------------------------------      

   * xtb version 6.4.1 (bd6e46d) compiled by 'conda@4901f00b25ba' on 2021-06-10

   xtb is free software: you can redistribute it and/or modify it under
   the terms of the GNU Lesser General Public License as published by
   the Free Software Foundation, either version 3 of the License, or
   (at your option) any later version.
   
   xtb is distributed in the hope that it will be useful,
   but WITHOUT ANY WARRANTY; without even the implied warranty of
   MERCHANTABILITY or FITNESS FOR A PARTICULAR PURPOSE.  See the
   GNU Lesser General Public License for more details.
   
   Cite this work as:
   * C. Bannwarth, E. Caldeweyher, S. Ehlert, A. Hansen, P. Pracht,
     J. Seibert, S. Spicher, S. Grimme, WIREs Comput. Mol. Sci., 2020, 11,
     e01493. DOI: 10.1002/wcms.1493
   
   for GFN2-xTB:
   * C. Bannwarth, S. Ehlert and S. Grimme., J. Chem. Theory Comput., 2019,
     15, 1652-1671. DOI: 10.1021/acs.jctc.8b01176
   for GFN1-xTB:
   * S. Grimme, C. Bannwarth, P. Shushkov, J. Chem. Theory Comput., 2017,
     13, 1989-2009. DOI: 10.1021/acs.jctc.7b00118
   for GFN0-xTB:
   * P. Pracht, E. Caldeweyher, S. Ehlert, S. Grimme, ChemRxiv, 2019, preprint.
     DOI: 10.26434/chemrxiv.8326202.v1
   for GFN-FF:
   * S. Spicher and S. Grimme, Angew. Chem. Int. Ed., 2020, 59, 15665-15673.
     DOI: 10.1002/anie.202004239
   
   for DFT-D4:
   * E. Caldeweyher, C. Bannwarth and S. Grimme, J. Chem. Phys., 2017,
     147, 034112. DOI: 10.1063/1.4993215
   * E. Caldeweyher, S. Ehlert, A. Hansen, H. Neugebauer, S. Spicher,
     C. Bannwarth and S. Grimme, J. Chem. Phys., 2019, 150, 154122.
     DOI: 10.1063/1.5090222
   * E. Caldeweyher, J.-M. Mewes, S. Ehlert and S. Grimme, Phys. Chem. Chem. Phys.
     2020, 22, 8499-8512. DOI: 10.1039/D0CP00502A
   
   for sTDA-xTB:
   * S. Grimme and C. Bannwarth, J. Chem. Phys., 2016, 145, 054103.
     DOI: 10.1063/1.4959605
   
   in the mass-spec context:
   * V. Asgeirsson, C. Bauer and S. Grimme, Chem. Sci., 2017, 8, 4879.
     DOI: 10.1039/c7sc00601b
   * J. Koopman and S. Grimme, ACS Omega 2019, 4, 12, 15120-15133.
     DOI: 10.1021/acsomega.9b02011
   
   for metadynamics refer to:
   * S. Grimme, J. Chem. Theory Comput., 2019, 155, 2847-2862
     DOI: 10.1021/acs.jctc.9b00143
   
   for SPH calculations refer to:
   * S. Spicher and S. Grimme, J. Chem. Theory Comput., 2021, 17, 1701-1714
     DOI: 10.1021/acs.jctc.0c01306
   
   with help from (in alphabetical order)
   P. Atkinson, C. Bannwarth, F. Bohle, G. Brandenburg, E. Caldeweyher
   M. Checinski, S. Dohm, S. Ehlert, S. Ehrlich, I. Gerasimov, J. Koopman
   C. Lavigne, S. Lehtola, F. März, M. Müller, F. Musil, H. Neugebauer
   J. Pisarek, C. Plett, P. Pracht, J. Seibert, P. Shushkov, S. Spicher
   M. Stahn, M. Steiner, T. Strunk, J. Stückrath, T. Rose, and J. Unsleber
   
 * started run on 2021/11/19 at 11:45:06.385     

           -------------------------------------------------
          |                Calculation Setup                |
           -------------------------------------------------

          program call               : /home/jeff/miniconda3/bin/xtb input_structure_1.xyz --gfn 2 --ohess normal --parallel 1 --etemp 300 --chrg 0 --uhf 0 -I det_control.in
          hostname                   : jelfscompute1
          coordinate file            : input_structure_1.xyz
          omp threads                :                     1
          number of atoms            :                   119
          number of electrons        :                   410
          charge                     :                     0
          spin                       :                   0.0
          first test random number   :      0.34506828197274

   ID    Z sym.   atoms
    1   28 Ni     1, 37, 85
    2    6 C      2-9, 11-15, 17-21, 23, 24, 38-45, 47-51, 53-57, 59, 60,
                  73-84, 86-93, 95-99, 101-105, 107, 108
    3    7 N      10, 16, 22, 25, 46, 52, 58, 61, 94, 100, 106, 109
    4    1 H      26-36, 62-72, 110-119

molecular fragmentation (1/2 indicates fragments):
111111111111111111111111111111111111222222222222222222222222222222222222
22222222222222222222222222222222222222222222222
# atoms in fragment 1/2:    36    83
 fragment masses (1/2) :      366.02      875.17
CMA distance (Bohr)    :  46.794
constraining FC (au)   :  0.0500

           -------------------------------------------------
          |                 G F N 2 - x T B                 |
           -------------------------------------------------

        Reference                      10.1021/acs.jctc.8b01176
      * Hamiltonian:
        H0-scaling (s, p, d)           1.850000    2.230000    2.230000
        zeta-weighting                 0.500000
      * Dispersion:
        s8                             2.700000
        a1                             0.520000
        a2                             5.000000
        s9                             5.000000
      * Repulsion:
        kExp                           1.500000    1.000000
        rExp                           1.000000
      * Coulomb:
        alpha                          2.000000
        third order                    shell-resolved
        anisotropic                    true
        a3                             3.000000
        a5                             4.000000
        cn-shift                       1.200000
        cn-exp                         4.000000
        max-rad                        5.000000


          ...................................................
          :                      SETUP                      :
          :.................................................:
          :  # basis functions                 398          :
          :  # atomic orbitals                 395          :
          :  # shells                          209          :
          :  # electrons                       410          :
          :  max. iterations                   250          :
          :  Hamiltonian                  GFN2-xTB          :
          :  restarted?                      false          :
          :  GBSA solvation                  false          :
          :  PC potential                    false          :
          :  electronic temp.          300.0000000     K    :
          :  accuracy                    1.0000000          :
          :  -> integral cutoff          0.2500000E+02      :
          :  -> integral neglect         0.1000000E-07      :
          :  -> SCF convergence          0.1000000E-05 Eh   :
          :  -> wf. convergence          0.1000000E-03 e    :
          :  Broyden damping             0.4000000          :
          ...................................................

 iter      E             dE          RMSdq      gap      omega  full diag
   1   -222.1224871 -0.222122E+03  0.911E+00    0.71       0.0  T
   2   -203.6402168  0.184823E+02  0.974E+00    0.06       1.0  T
   3   -124.5768238  0.790634E+02  0.144E+01    0.07       1.0  T
   4   -173.5375421 -0.489607E+02  0.908E+00    0.09       1.0  T
   5   -160.7982190  0.127393E+02  0.936E+00    0.09       1.0  T
   6   -168.2264081 -0.742819E+01  0.784E+00    0.01       1.0  T
   7   -212.4710391 -0.442446E+02  0.536E+00    0.13       1.0  T
   8   -214.3067287 -0.183569E+01  0.462E+00    0.14       1.0  T
   9   -220.3179498 -0.601122E+01  0.379E+00    0.17       1.0  T
  10   -221.9299214 -0.161197E+01  0.321E+00    0.36       1.0  T
  11   -222.3720922 -0.442171E+00  0.270E+00    0.52       1.0  T
  12   -222.3959007 -0.238085E-01  0.259E+00    0.58       1.0  T
  13   -222.4544538 -0.585531E-01  0.244E+00    0.52       1.0  T
  14   -222.5130370 -0.585832E-01  0.228E+00    0.43       1.0  T
  15   -222.1928761  0.320161E+00  0.224E+00    0.00       1.0  T
  16   -222.6519332 -0.459057E+00  0.179E+00    0.07       1.0  T
  17   -222.6023233  0.496099E-01  0.172E+00    0.06       1.0  T
  18   -222.1471525  0.455171E+00  0.197E+00    0.02       1.0  T
  19   -222.2356914 -0.885389E-01  0.217E+00    0.04       1.0  T
  20   -222.4247366 -0.189045E+00  0.184E+00    0.01       1.0  T
  21   -221.9002148  0.524522E+00  0.251E+00    0.09       1.0  T
  22   -222.6577676 -0.757553E+00  0.130E+00    0.01       1.0  T
  23   -222.8504666 -0.192699E+00  0.912E-01    0.10       1.0  T
  24   -222.7988382  0.516283E-01  0.751E-01    0.01       1.0  T
  25   -222.8440544 -0.452161E-01  0.690E-01    0.01       1.0  T
  26   -222.8457960 -0.174157E-02  0.685E-01    0.01       1.0  T
  27   -222.9151553 -0.693594E-01  0.603E-01    0.10       1.0  T
  28   -222.9005422  0.146131E-01  0.645E-01    0.17       1.0  T
  29   -222.9285586 -0.280164E-01  0.458E-01    0.12       1.0  T
  30   -222.9294587 -0.900112E-03  0.459E-01    0.15       1.0  T
  31   -222.9349729 -0.551421E-02  0.455E-01    0.09       1.0  T
  32   -221.4883582  0.144661E+01  0.349E+00    0.01       1.0  T
  33   -221.4411540  0.472042E-01  0.356E+00    0.01       1.0  T
  34   -220.9451232  0.496031E+00  0.402E+00    0.02       1.0  T
  35   -221.2855979 -0.340475E+00  0.373E+00    0.01       1.0  T
  36   -220.1625541  0.112304E+01  0.465E+00    0.02       1.0  T
  37   -220.1459104  0.166437E-01  0.467E+00    0.02       1.0  T
  38   -219.6250700  0.520840E+00  0.506E+00    0.02       1.0  T
  39   -219.4855708  0.139499E+00  0.516E+00    0.02       1.0  T
  40   -219.5227536 -0.371829E-01  0.514E+00    0.02       1.0  T
  41   -219.4358103  0.869434E-01  0.519E+00    0.02       1.0  T
  42   -219.2099105  0.225900E+00  0.534E+00    0.01       1.0  T
  43   -218.2302100  0.979701E+00  0.593E+00    0.04       1.0  T
  44   -218.4621441 -0.231934E+00  0.579E+00    0.02       1.0  T
  45   -218.2157398  0.246404E+00  0.594E+00    0.04       1.0  T
  46   -218.2474871 -0.317473E-01  0.592E+00    0.04       1.0  T
  47   -218.4886733 -0.241186E+00  0.578E+00    0.02       1.0  T
  48   -218.4911286 -0.245532E-02  0.578E+00    0.02       1.0  T
  49   -218.2520773  0.239051E+00  0.592E+00    0.03       1.0  T
  50   -218.1878765  0.642007E-01  0.596E+00    0.04       1.0  T
  51   -218.0930091  0.948674E-01  0.601E+00    0.04       1.0  T
  52   -218.1886284 -0.956193E-01  0.595E+00    0.04       1.0  T
  53   -218.3896384 -0.201010E+00  0.584E+00    0.03       1.0  T
  54   -218.4164253 -0.267869E-01  0.583E+00    0.03       1.0  T
  55   -218.2437993  0.172626E+00  0.593E+00    0.03       1.0  T
  56   -218.3494489 -0.105650E+00  0.587E+00    0.03       1.0  T
  57   -218.3243883  0.250606E-01  0.588E+00    0.03       1.0  T
  58   -218.3420101 -0.176218E-01  0.587E+00    0.03       1.0  T
  59   -218.2271480  0.114862E+00  0.594E+00    0.03       1.0  T
  60   -218.3938074 -0.166659E+00  0.585E+00    0.02       1.0  T
  61   -218.4152929 -0.214855E-01  0.583E+00    0.02       1.0  T
  62   -218.5890575 -0.173765E+00  0.573E+00    0.01       1.0  T
  63   -217.9602338  0.628824E+00  0.609E+00    0.04       1.0  T
  64   -217.9164240  0.438098E-01  0.612E+00    0.04       1.0  T
  65   -217.9975643 -0.811404E-01  0.607E+00    0.04       1.0  T
  66   -217.9889781  0.858621E-02  0.607E+00    0.04       1.0  T
  67   -217.9712338  0.177443E-01  0.608E+00    0.04       1.0  T
  68   -217.7693343  0.201899E+00  0.620E+00    0.04       1.0  T
  69   -217.8345363 -0.652020E-01  0.617E+00    0.04       1.0  T
  70   -217.8150418  0.194945E-01  0.618E+00    0.04       1.0  T
  71   -217.8624560 -0.474142E-01  0.615E+00    0.04       1.0  T
  72   -217.8269493  0.355067E-01  0.616E+00    0.03       1.0  T
  73   -217.6963324  0.130617E+00  0.623E+00    0.03       1.0  T
  74   -217.3073217  0.389011E+00  0.644E+00    0.00       1.0  T
  75   -217.5453549 -0.238033E+00  0.631E+00    0.00       1.0  T
  76   -218.3689660 -0.823611E+00  0.580E+00    0.02       1.0  T
  77   -218.9965054 -0.627539E+00  0.539E+00    0.02       1.0  T
  78   -219.1372328 -0.140727E+00  0.530E+00    0.03       1.0  T
  79   -219.3408632 -0.203630E+00  0.517E+00    0.04       1.0  T
  80   -219.6018849 -0.261022E+00  0.498E+00    0.05       1.0  T
  81   -219.6137532 -0.118683E-01  0.497E+00    0.05       1.0  T
  82   -219.5422791  0.714742E-01  0.502E+00    0.05       1.0  T
  83   -220.5971462 -0.105487E+01  0.410E+00    0.11       1.0  T
  84   -220.6010596 -0.391336E-02  0.406E+00    0.08       1.0  T
  85   -220.6262992 -0.252396E-01  0.398E+00    0.03       1.0  T
  86   -220.4668858  0.159413E+00  0.403E+00    0.00       1.0  T
  87   -221.5353839 -0.106850E+01  0.320E+00    0.01       1.0  T
  88   -222.4911808 -0.955797E+00  0.215E+00    0.04       1.0  T
  89   -222.7603840 -0.269203E+00  0.179E+00    0.08       1.0  T
  90   -222.6631202  0.972637E-01  0.220E+00    0.07       1.0  T
  91   -222.6704175 -0.729727E-02  0.221E+00    0.07       1.0  T
  92   -222.5995841  0.708334E-01  0.227E+00    0.05       1.0  T
  93   -222.5958940  0.369014E-02  0.224E+00    0.04       1.0  T
  94   -222.4724722  0.123422E+00  0.231E+00    0.01       1.0  T
  95   -222.1831889  0.289283E+00  0.250E+00    0.05       1.0  T
  96   -222.6271751 -0.443986E+00  0.222E+00    0.05       1.0  T
  97   -222.6248684  0.230671E-02  0.252E+00    0.09       1.0  T
  98   -222.7209224 -0.960540E-01  0.209E+00    0.06       1.0  T
  99   -222.8212304 -0.100308E+00  0.139E+00    0.03       1.0  T
 100   -222.5652993  0.255931E+00  0.169E+00    0.03       1.0  T
 101   -222.7756891 -0.210390E+00  0.114E+00    0.00       1.0  T
 102   -222.6878923  0.877968E-01  0.137E+00    0.02       1.0  T
 103   -222.8833517 -0.195459E+00  0.103E+00    0.08       1.0  T
 104   -222.8743351  0.901664E-02  0.102E+00    0.08       1.0  T
 105   -222.9039213 -0.295862E-01  0.801E-01    0.07       1.0  T
 106   -222.9089981 -0.507681E-02  0.707E-01    0.07       1.0  T
 107   -222.9123059 -0.330782E-02  0.592E-01    0.07       1.0  T
 108   -222.9163692 -0.406327E-02  0.455E-01    0.05       1.0  T
 109   -222.9273151 -0.109459E-01  0.399E-01    0.06       1.0  T
 110   -222.9306330 -0.331784E-02  0.346E-01    0.06       1.0  T
 111   -222.9304826  0.150353E-03  0.292E-01    0.05       1.0  T
 112   -222.9336035 -0.312093E-02  0.287E-01    0.05       1.0  T
 113   -222.9369836 -0.338004E-02  0.264E-01    0.06       1.0  T
 114   -222.9406224 -0.363879E-02  0.239E-01    0.06       1.0  T
 115   -222.9423882 -0.176586E-02  0.219E-01    0.06       1.0  T
 116   -222.9448766 -0.248834E-02  0.204E-01    0.07       1.0  T
 117   -222.9451718 -0.295220E-03  0.200E-01    0.07       1.0  T
 118   -222.9459005 -0.728715E-03  0.193E-01    0.07       1.0  T
 119   -222.9462931 -0.392549E-03  0.187E-01    0.07       1.0  T
 120   -222.9461205  0.172513E-03  0.187E-01    0.07       1.0  T
 121   -222.9465220 -0.401417E-03  0.185E-01    0.07       1.0  T
 122   -222.9471057 -0.583711E-03  0.180E-01    0.07       1.0  T
 123   -222.9476052 -0.499489E-03  0.174E-01    0.08       1.0  T
 124   -222.9480740 -0.468885E-03  0.170E-01    0.08       1.0  T
 125   -222.9484366 -0.362545E-03  0.166E-01    0.08       1.0  T
 126   -222.9493595 -0.922866E-03  0.157E-01    0.08       1.0  T
 127   -222.9499059 -0.546454E-03  0.151E-01    0.08       1.0  T
 128   -222.9512509 -0.134494E-02  0.126E-01    0.08       1.0  T
 129   -222.9522486 -0.997757E-03  0.104E-01    0.09       1.0  T
 130   -222.9529994 -0.750780E-03  0.827E-02    0.09       1.0  T
 131   -222.9533304 -0.331037E-03  0.725E-02    0.09       1.0  T
 132   -222.9536698 -0.339395E-03  0.603E-02    0.10       1.0  T
 133   -222.9537648 -0.949570E-04  0.570E-02    0.10       1.0  T
 134   -222.9539615 -0.196724E-03  0.452E-02    0.10       1.0  T
 135   -222.9540857 -0.124233E-03  0.378E-02    0.10       1.0  T
 136   -222.9540966 -0.108642E-04  0.341E-02    0.10       1.0  T
 137   -222.9541492 -0.526063E-04  0.307E-02    0.10       1.0  T
 138   -222.9542151 -0.658495E-04  0.235E-02    0.10       1.0  T
 139   -222.9542268 -0.116991E-04  0.227E-02    0.10       1.0  T
 140   -222.9542860 -0.591998E-04  0.153E-02    0.10       1.0  T
 141   -222.9543011 -0.151047E-04  0.131E-02    0.10       1.0  T
 142   -222.9543089 -0.786291E-05  0.112E-02    0.10       1.0  T
 143   -222.9543164 -0.752221E-05  0.897E-03    0.10       1.0  T
 144   -222.9543228 -0.631070E-05  0.742E-03    0.10       1.2  T
 145   -222.9543267 -0.389846E-05  0.549E-03    0.10       1.7  T
 146   -222.9543295 -0.284408E-05  0.400E-03    0.10       2.3  T
 147   -222.9543313 -0.178197E-05  0.235E-03    0.10       3.9  T
 148   -222.9543322 -0.887885E-06  0.782E-04    0.10      11.7  T
 149   -222.9543323 -0.890023E-07  0.311E-04    0.10      29.5  T

   *** convergence criteria satisfied after 149 iterations ***

         #    Occupation            Energy/Eh            Energy/eV
      -------------------------------------------------------------
         1        2.0000           -0.6895549             -18.7637
       ...           ...                  ...                  ...
       199        2.0000           -0.3593489              -9.7784
       200        2.0000           -0.3574851              -9.7277
       201        2.0000           -0.3574768              -9.7274
       202        1.9988           -0.3525330              -9.5929
       203        1.9937           -0.3509554              -9.5500
       204        1.9802           -0.3498602              -9.5202
       205        1.6707           -0.3470269              -9.4431 (HOMO)
       206        0.1855           -0.3433171              -9.3421 (LUMO)
       207        0.1710           -0.3432326              -9.3398
       208        0.0000           -0.3315616              -9.0223
       209        0.0000           -0.3315562              -9.0221
       210                         -0.3232104              -8.7950
       ...                                ...                  ...
       395                          2.2651183              61.6370
      -------------------------------------------------------------
                  HL-Gap            0.0037098 Eh            0.1009 eV
             Fermi-level           -0.3454838 Eh           -9.4011 eV

 SCC (total)                   0 d,  0 h,  0 min,  4.944 sec
 SCC setup                      ...        0 min,  0.003 sec (  0.059%)
 Dispersion                     ...        0 min,  0.007 sec (  0.149%)
 classical contributions        ...        0 min,  0.001 sec (  0.016%)
 integral evaluation            ...        0 min,  0.051 sec (  1.026%)
 iterations                     ...        0 min,  4.741 sec ( 95.884%)
 molecular gradient             ...        0 min,  0.138 sec (  2.796%)
 printout                       ...        0 min,  0.003 sec (  0.069%)

         :::::::::::::::::::::::::::::::::::::::::::::::::::::
         ::                     SUMMARY                     ::
         :::::::::::::::::::::::::::::::::::::::::::::::::::::
         :: total energy            -218.737524004503 Eh    ::
         :: gradient norm              1.097420354371 Eh/a0 ::
         :: HOMO-LUMO gap              0.100947580521 eV    ::
         ::.................................................::
         :: SCC energy              -222.954332255609 Eh    ::
         :: -> isotropic ES            0.105445746035 Eh    ::
         :: -> anisotropic ES          0.017610823678 Eh    ::
         :: -> anisotropic XC          0.117729723689 Eh    ::
         :: -> dispersion             -0.179301541839 Eh    ::
         :: repulsion energy           4.216604010842 Eh    ::
         :: add. restraining           0.000000000000 Eh    ::
         :: total charge              -0.000000000003 e     ::
         :::::::::::::::::::::::::::::::::::::::::::::::::::::

      ----------------------------------------------------------- 
     |                   =====================                   |
     |                        A N C O P T                        |
     |                   =====================                   |
     |               Approximate Normal Coordinate               |
     |                Rational Function Optimizer                |
      ----------------------------------------------------------- 

          ...................................................
          :                      SETUP                      :
          :.................................................:
          :   optimization level            normal          :
          :   max. optcycles                   357          :
          :   ANC micro-cycles                  20          :
          :   degrees of freedom               351          :
          :.................................................:
          :   RF solver                   davidson          :
          :   write xtbopt.log                true          :
          :   linear?                        false          :
          :   energy convergence         0.5000000E-05 Eh   :
          :   grad. convergence          0.1000000E-02 Eh/α :
          :   maximium RF displ.         1.0000000          :
          :   Hlow (freq-cutoff)         0.1000000E-01      :
          :   Hmax (freq-cutoff)         5.0000000          :
          :   S6 in model hess.         20.0000000          :
          ...................................................

generating ANC from model Hessian ...
Using Lindh-Hessian (1995)
 Shifting diagonal of input Hessian by    1.0134268716269094E-002
 Lowest  eigenvalues of input Hessian
    0.010000    0.010034    0.010102    0.010109    0.010113    0.010116
    0.010123    0.010127    0.000000    0.000000    0.000000    0.000000
    0.000000    0.000000    0.010142    0.010146    0.010154    0.010163
 Highest eigenvalues
    2.472860    2.628587    2.682208    2.687821    3.327668    3.495154


........................................................................
.............................. CYCLE    1 ..............................
........................................................................
   1   -222.9543323 -0.222954E+03  0.270E-04    0.10       0.0  T
   2   -222.9543278  0.448821E-05  0.571E-03    0.10       1.6  T
   3   -222.9543322 -0.444117E-05  0.551E-04    0.10      16.6  T
   4   -222.9543323 -0.396237E-07  0.384E-04    0.10      23.9  T
   5   -222.9543322  0.328415E-07  0.379E-04    0.10      24.2  T
     SCC iter.                  ...        0 min,  0.159 sec
     gradient                   ...        0 min,  0.138 sec
 * total energy  :  -218.7375240 Eh     change        0.3612152E-07 Eh
   gradient norm :     1.0974213 Eh/α   predicted     0.0000000E+00 (-100.00%)
   displ. norm   :     0.5450626 α      lambda       -0.5045611E+00
   maximum displ.:     0.1360420 α      in ANC's #351, #283, #282, ...

........................................................................
.............................. CYCLE    2 ..............................
........................................................................
   1   -222.9588663 -0.222959E+03  0.442E-01    0.11       0.0  T
   2   -222.7943177  0.164549E+00  0.973E-01    0.04       1.0  T
   3   -222.8516024 -0.572847E-01  0.832E-01    0.12       1.0  T
   4   -222.8973483 -0.457459E-01  0.739E-01    0.03       1.0  T
   5   -222.9164350 -0.190867E-01  0.541E-01    0.21       1.0  T
   6   -222.7792098  0.137225E+00  0.845E-01    0.00       1.0  T
   7   -222.9407360 -0.161526E+00  0.428E-01    0.14       1.0  T
   8   -222.7573202  0.183416E+00  0.101E+00    0.00       1.0  T
   9   -222.9421361 -0.184816E+00  0.307E-01    0.05       1.0  T
  10   -222.9617693 -0.196333E-01  0.317E-01    0.16       1.0  T
  11   -222.9641526 -0.238332E-02  0.306E-01    0.15       1.0  T
  12   -222.9701994 -0.604676E-02  0.233E-01    0.13       1.0  T
  13   -222.9713743 -0.117489E-02  0.200E-01    0.12       1.0  T
  14   -222.9744004 -0.302607E-02  0.118E-01    0.11       1.0  T
  15   -222.9754979 -0.109751E-02  0.412E-02    0.10       1.0  T
  16   -222.9755836 -0.857152E-04  0.170E-02    0.10       1.0  T
  17   -222.9755556  0.279435E-04  0.166E-02    0.10       1.0  T
  18   -222.9756078 -0.521692E-04  0.863E-03    0.10       1.1  T
  19   -222.9755393  0.684735E-04  0.225E-02    0.10       1.0  T
  20   -222.9755913 -0.520064E-04  0.133E-02    0.10       1.0  T
  21   -222.9756195 -0.281751E-04  0.175E-03    0.10       5.2  T
  22   -222.9756197 -0.201211E-06  0.216E-03    0.10       4.2  T
  23   -222.9756199 -0.157930E-06  0.106E-03    0.10       8.7  T
  24   -222.9756200 -0.887187E-07  0.884E-04    0.10      10.4  T
  25   -222.9756200 -0.501000E-07  0.738E-04    0.10      12.4  T
     SCC iter.                  ...        0 min,  0.781 sec
     gradient                   ...        0 min,  0.138 sec
 * total energy  :  -219.0752337 Eh     change       -0.3377098E+00 Eh
   gradient norm :     0.4192076 Eh/α   predicted    -0.3272469E+00 (  -3.10%)
   displ. norm   :     0.6222317 α      lambda       -0.1950260E+00
   maximum displ.:     0.2364164 α      in ANC's #122, #121, #123, ...

........................................................................
.............................. CYCLE    3 ..............................
........................................................................
   1   -223.0032051 -0.223003E+03  0.476E-01    0.08       0.0  T
   2   -222.4996951  0.503510E+00  0.148E+00    0.35       1.0  T
   3   -222.8264805 -0.326785E+00  0.105E+00    0.22       1.0  T
   4   -221.3675856  0.145889E+01  0.320E+00    0.04       1.0  T
   5   -222.9658028 -0.159822E+01  0.599E-01    0.18       1.0  T
   6   -222.9837782 -0.179754E-01  0.500E-01    0.13       1.0  T
   7   -222.9673001  0.164781E-01  0.551E-01    0.14       1.0  T
   8   -222.9933825 -0.260824E-01  0.412E-01    0.19       1.0  T
   9   -223.0079509 -0.145685E-01  0.348E-01    0.12       1.0  T
  10   -223.0059381  0.201279E-02  0.350E-01    0.13       1.0  T
  11   -223.0034533  0.248487E-02  0.354E-01    0.15       1.0  T
  12   -223.0109147 -0.746141E-02  0.323E-01    0.13       1.0  T
  13   -223.0101038  0.810911E-03  0.319E-01    0.13       1.0  T
  14   -223.0104682 -0.364473E-03  0.312E-01    0.13       1.0  T
  15   -223.0107715 -0.303298E-03  0.302E-01    0.13       1.0  T
  16   -223.0118757 -0.110414E-02  0.290E-01    0.13       1.0  T
  17   -223.0120927 -0.216975E-03  0.287E-01    0.13       1.0  T
  18   -223.0120520  0.406899E-04  0.288E-01    0.13       1.0  T
  19   -223.0147206 -0.266861E-02  0.252E-01    0.12       1.0  T
  20   -223.0151570 -0.436452E-03  0.244E-01    0.12       1.0  T
  21   -223.0159306 -0.773609E-03  0.230E-01    0.11       1.0  T
  22   -223.0185259 -0.259523E-02  0.176E-01    0.10       1.0  T
  23   -223.0202659 -0.174005E-02  0.124E-01    0.10       1.0  T
  24   -223.0201512  0.114722E-03  0.128E-01    0.10       1.0  T
  25   -223.0206423 -0.491074E-03  0.113E-01    0.09       1.0  T
  26   -223.0212176 -0.575297E-03  0.846E-02    0.09       1.0  T
  27   -223.0218843 -0.666683E-03  0.449E-02    0.09       1.0  T
  28   -223.0219050 -0.207170E-04  0.429E-02    0.09       1.0  T
  29   -223.0218702  0.347298E-04  0.528E-02    0.08       1.0  T
  30   -223.0219812 -0.110950E-03  0.417E-02    0.09       1.0  T
  31   -223.0220664 -0.851815E-04  0.265E-02    0.08       1.0  T
  32   -223.0221336 -0.672306E-04  0.251E-03    0.08       3.7  T
  33   -223.0221344 -0.840030E-06  0.138E-03    0.08       6.6  T
  34   -223.0221345 -0.742118E-07  0.158E-03    0.08       5.8  T
  35   -223.0221348 -0.252463E-06  0.172E-04    0.08      53.2  T
  36   -223.0221348  0.808438E-08  0.467E-04    0.08      19.6  T
     SCC iter.                  ...        0 min,  1.129 sec
     gradient                   ...        0 min,  0.138 sec
 * total energy  :  -219.2261000 Eh     change       -0.1508662E+00 Eh
   gradient norm :     0.1976300 Eh/α   predicted    -0.1352675E+00 ( -10.34%)
   displ. norm   :     0.7164642 α      lambda       -0.1125278E+00
   maximum displ.:     0.2813863 α      in ANC's #122, #121, #123, ...

........................................................................
.............................. CYCLE    4 ..............................
........................................................................
   1   -223.0771948 -0.223077E+03  0.470E-01    0.07       0.0  T
   2   -222.4022709  0.674924E+00  0.175E+00    0.16       1.0  T
   3   -222.9661192 -0.563848E+00  0.820E-01    0.13       1.0  T
   4   -221.6223695  0.134375E+01  0.294E+00    0.10       1.0  T
   5   -223.0548041 -0.143243E+01  0.400E-01    0.02       1.0  T
   6   -222.4615002  0.593304E+00  0.117E+00    0.02       1.0  T
   7   -223.0007149 -0.539215E+00  0.646E-01    0.33       1.0  T
   8   -223.0163366 -0.156218E-01  0.576E-01    0.20       1.0  T
   9   -223.0457065 -0.293699E-01  0.478E-01    0.10       1.0  T
  10   -223.0835804 -0.378739E-01  0.233E-01    0.08       1.0  T
  11   -223.0875754 -0.399500E-02  0.200E-01    0.05       1.0  T
  12   -223.0898473 -0.227194E-02  0.175E-01    0.08       1.0  T
  13   -223.0900162 -0.168894E-03  0.165E-01    0.06       1.0  T
  14   -223.0885622  0.145399E-02  0.164E-01    0.10       1.0  T
  15   -223.0887992 -0.236963E-03  0.159E-01    0.09       1.0  T
  16   -223.0896823 -0.883100E-03  0.149E-01    0.09       1.0  T
  17   -223.0905823 -0.900050E-03  0.139E-01    0.08       1.0  T
  18   -223.0906255 -0.431439E-04  0.138E-01    0.08       1.0  T
  19   -223.0911313 -0.505850E-03  0.130E-01    0.08       1.0  T
  20   -223.0914161 -0.284779E-03  0.124E-01    0.08       1.0  T
  21   -223.0916918 -0.275736E-03  0.116E-01    0.08       1.0  T
  22   -223.0917052 -0.133714E-04  0.114E-01    0.08       1.0  T
  23   -223.0918750 -0.169770E-03  0.105E-01    0.08       1.0  T
  24   -223.0920541 -0.179065E-03  0.958E-02    0.08       1.0  T
  25   -223.0922388 -0.184740E-03  0.809E-02    0.08       1.0  T
  26   -223.0926579 -0.419112E-03  0.487E-02    0.07       1.0  T
  27   -223.0928471 -0.189197E-03  0.262E-02    0.07       1.0  T
  28   -223.0928869 -0.398021E-04  0.168E-02    0.07       1.0  T
  29   -223.0928857  0.124226E-05  0.170E-02    0.07       1.0  T
  30   -223.0929150 -0.293650E-04  0.155E-03    0.07       5.9  T
  31   -223.0929143  0.696342E-06  0.281E-03    0.07       3.3  T
  32   -223.0929154 -0.111113E-05  0.103E-03    0.07       8.9  T
  33   -223.0929156 -0.171683E-06  0.204E-04    0.07      44.9  T
  34   -223.0929156  0.286933E-07  0.585E-04    0.07      15.7  T
     SCC iter.                  ...        0 min,  1.063 sec
     gradient                   ...        0 min,  0.138 sec
 * total energy  :  -219.3144362 Eh     change       -0.8833625E-01 Eh
   gradient norm :     0.0981495 Eh/α   predicted    -0.8514568E-01 (  -3.61%)
   displ. norm   :     0.7567902 α      lambda       -0.6772534E-01
   maximum displ.:     0.2620276 α      in ANC's #122, #65, #90, ...

........................................................................
.............................. CYCLE    5 ..............................
........................................................................
   1   -223.1399024 -0.223140E+03  0.415E-01    0.08       0.0  T
   2   -222.5611852  0.578717E+00  0.139E+00    0.09       1.0  T
   3   -222.6461011 -0.849159E-01  0.100E+00    0.07       1.0  T
   4   -223.0297779 -0.383677E+00  0.758E-01    0.16       1.0  T
   5   -223.0777544 -0.479765E-01  0.544E-01    0.17       1.0  T
   6   -223.1042669 -0.265125E-01  0.415E-01    0.11       1.0  T
   7   -223.1385590 -0.342921E-01  0.206E-01    0.07       1.0  T
   8   -223.1317963  0.676272E-02  0.215E-01    0.05       1.0  T
   9   -223.1459487 -0.141524E-01  0.110E-01    0.07       1.0  T
  10   -223.1459324  0.162727E-04  0.116E-01    0.07       1.0  T
  11   -223.1398166  0.611583E-02  0.167E-01    0.09       1.0  T
  12   -223.1450059 -0.518927E-02  0.104E-01    0.08       1.0  T
  13   -223.1455495 -0.543635E-03  0.798E-02    0.06       1.0  T
  14   -223.1471820 -0.163247E-02  0.401E-02    0.07       1.0  T
  15   -223.1473641 -0.182139E-03  0.343E-02    0.07       1.0  T
  16   -223.1470547  0.309451E-03  0.384E-02    0.07       1.0  T
  17   -223.1475834 -0.528768E-03  0.213E-02    0.07       1.0  T
  18   -223.1476858 -0.102348E-03  0.138E-02    0.07       1.0  T
  19   -223.1476802  0.561932E-05  0.127E-02    0.07       1.0  T
  20   -223.1477399 -0.597058E-04  0.482E-03    0.07       1.9  T
  21   -223.1477457 -0.581013E-05  0.271E-03    0.07       3.4  T
  22   -223.1477468 -0.115298E-05  0.217E-03    0.07       4.2  T
  23   -223.1477484 -0.160508E-05  0.109E-03    0.07       8.4  T
  24   -223.1477488 -0.380414E-06  0.497E-04    0.07      18.4  T
  25   -223.1477488 -0.357170E-07  0.394E-04    0.07      23.3  T
     SCC iter.                  ...        0 min,  0.783 sec
     gradient                   ...        0 min,  0.138 sec
 * total energy  :  -219.3704494 Eh     change       -0.5601316E-01 Eh
   gradient norm :     0.0791311 Eh/α   predicted    -0.5325688E-01 (  -4.92%)
   displ. norm   :     0.7792036 α      lambda       -0.4803298E-01
   maximum displ.:     0.2842135 α      in ANC's #65, #90, #66, ...

........................................................................
.............................. CYCLE    6 ..............................
........................................................................
   1   -223.1878145 -0.223188E+03  0.397E-01    0.09       0.0  T
   2   -222.7556749  0.432140E+00  0.108E+00    0.13       1.0  T
   3   -222.8106845 -0.550096E-01  0.899E-01    0.07       1.0  T
   4   -223.0847269 -0.274042E+00  0.721E-01    0.26       1.0  T
   5   -223.1158140 -0.310871E-01  0.521E-01    0.35       1.0  T
   6   -223.0989146  0.168994E-01  0.639E-01    0.21       1.0  T
   7   -223.1490107 -0.500960E-01  0.425E-01    0.13       1.0  T
   8   -223.1645132 -0.155025E-01  0.337E-01    0.11       1.0  T
   9   -223.1803233 -0.158102E-01  0.182E-01    0.10       1.0  T
  10   -223.1833368 -0.301350E-02  0.167E-01    0.10       1.0  T
  11   -223.1833926 -0.557555E-04  0.167E-01    0.10       1.0  T
  12   -223.1866337 -0.324111E-02  0.120E-01    0.06       1.0  T
  13   -223.1908792 -0.424551E-02  0.601E-02    0.08       1.0  T
  14   -223.1918235 -0.944281E-03  0.259E-02    0.08       1.0  T
  15   -223.1919181 -0.946207E-04  0.152E-02    0.08       1.0  T
  16   -223.1919577 -0.396534E-04  0.952E-03    0.08       1.0  T
  17   -223.1919576  0.125924E-06  0.904E-03    0.08       1.0  T
  18   -223.1919690 -0.114104E-04  0.594E-03    0.08       1.5  T
  19   -223.1919803 -0.112786E-04  0.338E-03    0.08       2.7  T
  20   -223.1919833 -0.296480E-05  0.167E-03    0.08       5.5  T
  21   -223.1919838 -0.488177E-06  0.764E-04    0.08      12.0  T
  22   -223.1919838 -0.572825E-08  0.586E-04    0.08      15.7  T
     SCC iter.                  ...        0 min,  0.690 sec
     gradient                   ...        0 min,  0.139 sec
 * total energy  :  -219.4108063 Eh     change       -0.4035692E-01 Eh
   gradient norm :     0.0627798 Eh/α   predicted    -0.3859830E-01 (  -4.36%)
   displ. norm   :     0.7845248 α      lambda       -0.3452388E-01
   maximum displ.:     0.2987871 α      in ANC's #65, #66, #90, ...

........................................................................
.............................. CYCLE    7 ..............................
........................................................................
   1   -223.2240321 -0.223224E+03  0.389E-01    0.11       0.0  T
   2   -222.8075877  0.416444E+00  0.102E+00    0.13       1.0  T
   3   -223.0112721 -0.203684E+00  0.773E-01    0.03       1.0  T
   4   -223.1644148 -0.153143E+00  0.517E-01    0.34       1.0  T
   5   -223.1136674  0.507474E-01  0.756E-01    0.20       1.0  T
   6   -223.1316737 -0.180062E-01  0.681E-01    0.30       1.0  T
   7   -223.1886592 -0.569855E-01  0.407E-01    0.20       1.0  T
   8   -223.1965546 -0.789543E-02  0.324E-01    0.11       1.0  T
   9   -223.2138732 -0.173185E-01  0.207E-01    0.08       1.0  T
  10   -223.2179609 -0.408769E-02  0.164E-01    0.09       1.0  T
  11   -223.2196026 -0.164178E-02  0.153E-01    0.11       1.0  T
  12   -223.2207799 -0.117721E-02  0.141E-01    0.10       1.0  T
  13   -223.2252090 -0.442912E-02  0.872E-02    0.12       1.0  T
  14   -223.2267049 -0.149593E-02  0.422E-02    0.09       1.0  T
  15   -223.2275841 -0.879174E-03  0.122E-02    0.09       1.0  T
  16   -223.2275672  0.169056E-04  0.124E-02    0.09       1.0  T
  17   -223.2274899  0.773102E-04  0.161E-02    0.09       1.0  T
  18   -223.2275984 -0.108497E-03  0.658E-03    0.09       1.4  T
  19   -223.2276003 -0.191180E-05  0.522E-03    0.09       1.8  T
  20   -223.2276051 -0.484224E-05  0.345E-03    0.09       2.7  T
  21   -223.2276083 -0.319735E-05  0.213E-03    0.09       4.3  T
  22   -223.2276100 -0.168309E-05  0.552E-04    0.09      16.6  T
  23   -223.2276098  0.175058E-06  0.842E-04    0.09      10.9  T
  24   -223.2276100 -0.205150E-06  0.394E-04    0.09      23.3  T
     SCC iter.                  ...        0 min,  0.750 sec
     gradient                   ...        0 min,  0.139 sec
 * total energy  :  -219.4396716 Eh     change       -0.2886527E-01 Eh
   gradient norm :     0.0436882 Eh/α   predicted    -0.2788632E-01 (  -3.39%)
   displ. norm   :     0.7882185 α      lambda       -0.2395419E-01
   maximum displ.:     0.2674358 α      in ANC's #65, #35, #23, ...

........................................................................
.............................. CYCLE    8 ..............................
........................................................................
   1   -223.2441624 -0.223244E+03  0.372E-01    0.14       0.0  T
   2   -222.7495424  0.494620E+00  0.112E+00    0.12       1.0  T
   3   -223.1355930 -0.386051E+00  0.638E-01    0.03       1.0  T
   4   -223.2126455 -0.770525E-01  0.378E-01    0.32       1.0  T
   5   -223.2293771 -0.167316E-01  0.355E-01    0.16       1.0  T
   6   -223.1887373  0.406399E-01  0.510E-01    0.14       1.0  T
   7   -223.2406846 -0.519473E-01  0.169E-01    0.13       1.0  T
   8   -223.1459647  0.947199E-01  0.496E-01    0.02       1.0  T
   9   -223.2404719 -0.945072E-01  0.179E-01    0.18       1.0  T
  10   -223.2419571 -0.148523E-02  0.158E-01    0.18       1.0  T
  11   -223.2436894 -0.173224E-02  0.134E-01    0.18       1.0  T
  12   -223.2464940 -0.280467E-02  0.917E-02    0.15       1.0  T
  13   -223.2479846 -0.149055E-02  0.602E-02    0.13       1.0  T
  14   -223.2486894 -0.704775E-03  0.449E-02    0.13       1.0  T
  15   -223.2490943 -0.404931E-03  0.262E-02    0.12       1.0  T
  16   -223.2492016 -0.107330E-03  0.181E-02    0.12       1.0  T
  17   -223.2492540 -0.523291E-04  0.111E-02    0.12       1.0  T
  18   -223.2493013 -0.473567E-04  0.379E-03    0.11       2.4  T
  19   -223.2493033 -0.193399E-05  0.260E-03    0.11       3.5  T
  20   -223.2493059 -0.265889E-05  0.102E-03    0.11       9.0  T
  21   -223.2493051  0.813209E-06  0.156E-03    0.11       5.9  T
  22   -223.2493059 -0.750050E-06  0.879E-04    0.11      10.4  T
  23   -223.2493061 -0.209603E-06  0.309E-04    0.11      29.7  T
     SCC iter.                  ...        0 min,  0.719 sec
     gradient                   ...        0 min,  0.139 sec
 * total energy  :  -219.4598254 Eh     change       -0.2015388E-01 Eh
   gradient norm :     0.0332439 Eh/α   predicted    -0.1941834E-01 (  -3.65%)
   displ. norm   :     0.8225368 α      lambda       -0.1780732E-01
   maximum displ.:     0.2980098 α      in ANC's #35, #12, #23, ...

........................................................................
.............................. CYCLE    9 ..............................
........................................................................
   1   -223.2515760 -0.223252E+03  0.339E-01    0.19       0.0  T
   2   -222.8173933  0.434183E+00  0.103E+00    0.05       1.0  T
   3   -223.2192687 -0.401875E+00  0.463E-01    0.21       1.0  T
   4   -223.2085947  0.106739E-01  0.523E-01    0.14       1.0  T
   5   -223.2291370 -0.205423E-01  0.362E-01    0.38       1.0  T
   6   -223.2378305 -0.869350E-02  0.322E-01    0.24       1.0  T
   7   -223.2466445 -0.881395E-02  0.212E-01    0.17       1.0  T
   8   -223.2515559 -0.491148E-02  0.150E-01    0.21       1.0  T
   9   -223.2554017 -0.384576E-02  0.845E-02    0.16       1.0  T
  10   -223.2554526 -0.508958E-04  0.832E-02    0.18       1.0  T
  11   -223.2561897 -0.737134E-03  0.635E-02    0.16       1.0  T
  12   -223.2570835 -0.893777E-03  0.393E-02    0.17       1.0  T
  13   -223.2574448 -0.361284E-03  0.192E-02    0.14       1.0  T
  14   -223.2575436 -0.987818E-04  0.107E-02    0.14       1.0  T
  15   -223.2575309  0.126764E-04  0.102E-02    0.14       1.0  T
  16   -223.2575315 -0.575969E-06  0.839E-03    0.15       1.1  T
  17   -223.2575554 -0.239520E-04  0.211E-03    0.14       4.3  T
  18   -223.2575560 -0.552725E-06  0.113E-03    0.14       8.1  T
  19   -223.2575564 -0.424025E-06  0.388E-04    0.14      23.7  T
  20   -223.2575564 -0.817707E-08  0.272E-04    0.14      33.7  T
     SCC iter.                  ...        0 min,  0.627 sec
     gradient                   ...        0 min,  0.139 sec
 * total energy  :  -219.4758506 Eh     change       -0.1602518E-01 Eh
   gradient norm :     0.0310245 Eh/α   predicted    -0.1492759E-01 (  -6.85%)
   displ. norm   :     0.9055723 α      lambda       -0.1724232E-01
   maximum displ.:     0.4075215 α      in ANC's #12, #35, #23, ...

........................................................................
.............................. CYCLE   10 ..............................
........................................................................
   1   -223.2520725 -0.223252E+03  0.334E-01    0.28       0.0  T
   2   -223.0802791  0.171793E+00  0.702E-01    0.03       1.0  T
   3   -223.2395314 -0.159252E+00  0.313E-01    0.24       1.0  T
   4   -223.2320538  0.747755E-02  0.390E-01    0.32       1.0  T
   5   -223.2287884  0.326543E-02  0.400E-01    0.43       1.0  T
   6   -223.2504436 -0.216552E-01  0.177E-01    0.29       1.0  T
   7   -223.2536433 -0.319970E-02  0.143E-01    0.24       1.0  T
   8   -223.2555890 -0.194567E-02  0.944E-02    0.29       1.0  T
   9   -223.2571038 -0.151484E-02  0.581E-02    0.25       1.0  T
  10   -223.2573107 -0.206905E-03  0.361E-02    0.24       1.0  T
  11   -223.2576018 -0.291092E-03  0.147E-02    0.20       1.0  T
  12   -223.2576260 -0.241546E-04  0.900E-03    0.19       1.0  T
  13   -223.2576409 -0.148890E-04  0.470E-03    0.19       2.0  T
  14   -223.2576435 -0.262146E-05  0.222E-03    0.19       4.1  T
  15   -223.2576450 -0.155795E-05  0.658E-04    0.20      13.9  T
  16   -223.2576450  0.286107E-08  0.511E-04    0.20      17.9  T
  17   -223.2576451 -0.495341E-07  0.317E-04    0.20      28.9  T
     SCC iter.                  ...        0 min,  0.533 sec
     gradient                   ...        0 min,  0.139 sec
 * total energy  :  -219.4932204 Eh     change       -0.1736976E-01 Eh
   gradient norm :     0.0350555 Eh/α   predicted    -0.1569105E-01 (  -9.66%)
   displ. norm   :     0.8841024 α      lambda       -0.1853952E-01
   maximum displ.:     0.4453093 α      in ANC's #12, #35, #23, ...

........................................................................
.............................. CYCLE   11 ..............................
........................................................................
   1   -223.2425554 -0.223243E+03  0.316E-01    0.39       0.0  T
   2   -223.2208780  0.216774E-01  0.385E-01    0.19       1.0  T
   3   -223.2286364 -0.775840E-02  0.345E-01    0.36       1.0  T
   4   -223.2277664  0.870025E-03  0.313E-01    0.47       1.0  T
   5   -223.2442995 -0.165332E-01  0.938E-02    0.35       1.0  T
   6   -223.2447090 -0.409409E-03  0.754E-02    0.27       1.0  T
   7   -223.2456148 -0.905840E-03  0.274E-02    0.30       1.0  T
   8   -223.2455404  0.744004E-04  0.261E-02    0.27       1.0  T
   9   -223.2456417 -0.101326E-03  0.122E-02    0.29       1.0  T
  10   -223.2456619 -0.202157E-04  0.537E-03    0.29       1.7  T
  11   -223.2456657 -0.374851E-05  0.230E-03    0.29       4.0  T
  12   -223.2456662 -0.537901E-06  0.118E-03    0.29       7.8  T
  13   -223.2456663 -0.305809E-07  0.833E-04    0.29      11.0  T
  14   -223.2456663 -0.414300E-07  0.470E-04    0.29      19.5  T
     SCC iter.                  ...        0 min,  0.440 sec
     gradient                   ...        0 min,  0.139 sec
 * total energy  :  -219.5133477 Eh     change       -0.2012728E-01 Eh
   gradient norm :     0.0481320 Eh/α   predicted    -0.1651537E-01 ( -17.95%)
   displ. norm   :     0.8482585 α      lambda       -0.2301516E-01
   maximum displ.:     0.4572756 α      in ANC's #12, #35, #23, ...

........................................................................
.............................. CYCLE   12 ..............................
........................................................................
   1   -223.2299682 -0.223230E+03  0.312E-01    0.56       0.0  T
   2   -223.2209218  0.904634E-02  0.296E-01    0.48       1.0  T
   3   -223.2181754  0.274644E-02  0.320E-01    0.57       1.0  T
   4   -223.2251532 -0.697781E-02  0.205E-01    0.63       1.0  T
   5   -223.2317342 -0.658101E-02  0.657E-02    0.56       1.0  T
   6   -223.2319710 -0.236779E-03  0.370E-02    0.54       1.0  T
   7   -223.2320836 -0.112615E-03  0.260E-02    0.56       1.0  T
   8   -223.2321314 -0.477948E-04  0.109E-02    0.55       1.0  T
   9   -223.2321426 -0.111882E-04  0.511E-03    0.56       1.8  T
  10   -223.2321459 -0.329271E-05  0.243E-03    0.55       3.8  T
  11   -223.2321463 -0.450798E-06  0.128E-03    0.55       7.2  T
  12   -223.2321464 -0.672042E-07  0.103E-03    0.55       8.9  T
  13   -223.2321465 -0.115013E-06  0.520E-04    0.55      17.6  T
  14   -223.2321465 -0.110916E-07  0.334E-04    0.55      27.5  T
     SCC iter.                  ...        0 min,  0.440 sec
     gradient                   ...        0 min,  0.139 sec
 * total energy  :  -219.5391128 Eh     change       -0.2576518E-01 Eh
   gradient norm :     0.0628993 Eh/α   predicted    -0.1978778E-01 ( -23.20%)
   displ. norm   :     0.8274186 α      lambda       -0.3015937E-01
   maximum displ.:     0.4550849 α      in ANC's #12, #35, #43, ...

........................................................................
.............................. CYCLE   13 ..............................
........................................................................
   1   -223.2165871 -0.223217E+03  0.301E-01    0.92       0.0  T
   2   -223.2127007  0.388639E-02  0.245E-01    0.87       1.0  T
   3   -223.2089991  0.370164E-02  0.273E-01    0.96       1.0  T
   4   -223.2161936 -0.719451E-02  0.120E-01    0.98       1.0  T
   5   -223.2177508 -0.155715E-02  0.659E-02    0.94       1.0  T
   6   -223.2182179 -0.467185E-03  0.263E-02    0.94       1.0  T
   7   -223.2182148  0.315959E-05  0.177E-02    0.95       1.0  T
   8   -223.2182363 -0.215175E-04  0.103E-02    0.94       1.0  T
   9   -223.2182499 -0.136283E-04  0.338E-03    0.94       2.7  T
  10   -223.2182507 -0.809535E-06  0.227E-03    0.94       4.0  T
  11   -223.2182513 -0.554384E-06  0.109E-03    0.94       8.4  T
  12   -223.2182513 -0.527428E-07  0.660E-04    0.94      13.9  T
  13   -223.2182514 -0.122357E-07  0.457E-04    0.94      20.1  T
     SCC iter.                  ...        0 min,  0.411 sec
     gradient                   ...        0 min,  0.139 sec
 * total energy  :  -219.5724024 Eh     change       -0.3328961E-01 Eh
   gradient norm :     0.0754974 Eh/α   predicted    -0.2540358E-01 ( -23.69%)
   displ. norm   :     0.8248323 α      lambda       -0.3750503E-01
   maximum displ.:     0.4568335 α      in ANC's #12, #35, #43, ...

........................................................................
.............................. CYCLE   14 ..............................
........................................................................
   1   -223.2065126 -0.223207E+03  0.275E-01    1.31       0.0  T
   2   -223.2046830  0.182965E-02  0.218E-01    1.32       1.0  T
   3   -223.2026671  0.201589E-02  0.217E-01    1.38       1.0  T
   4   -223.2073577 -0.469059E-02  0.673E-02    1.39       1.0  T
   5   -223.2074546 -0.969322E-04  0.525E-02    1.38       1.0  T
   6   -223.2077331 -0.278459E-03  0.255E-02    1.38       1.0  T
   7   -223.2077473 -0.142523E-04  0.137E-02    1.38       1.0  T
   8   -223.2077648 -0.174344E-04  0.810E-03    1.38       1.1  T
   9   -223.2077749 -0.100901E-04  0.262E-03    1.38       3.5  T
  10   -223.2077752 -0.395722E-06  0.162E-03    1.38       5.7  T
  11   -223.2077754 -0.145489E-06  0.111E-03    1.38       8.3  T
  12   -223.2077755 -0.110005E-06  0.577E-04    1.38      15.9  T
  13   -223.2077755 -0.134198E-07  0.393E-04    1.38      23.3  T
     SCC iter.                  ...        0 min,  0.409 sec
     gradient                   ...        0 min,  0.139 sec
 * total energy  :  -219.6124481 Eh     change       -0.4004564E-01 Eh
   gradient norm :     0.0831617 Eh/α   predicted    -0.3151077E-01 ( -21.31%)
   displ. norm   :     0.8265946 α      lambda       -0.4196864E-01
   maximum displ.:     0.4731172 α      in ANC's #12, #35, #43, ...

........................................................................
.............................. CYCLE   15 ..............................
........................................................................
   1   -223.2014958 -0.223201E+03  0.252E-01    1.38       0.0  T
   2   -223.2002542  0.124160E-02  0.209E-01    1.35       1.0  T
   3   -223.1997536  0.500601E-03  0.172E-01    1.34       1.0  T
   4   -223.2023702 -0.261658E-02  0.511E-02    1.34       1.0  T
   5   -223.2024678 -0.975804E-04  0.326E-02    1.34       1.0  T
   6   -223.2024978 -0.300522E-04  0.245E-02    1.34       1.0  T
   7   -223.2025423 -0.444537E-04  0.108E-02    1.34       1.0  T
   8   -223.2025482 -0.592657E-05  0.637E-03    1.34       1.4  T
   9   -223.2025540 -0.579178E-05  0.250E-03    1.34       3.7  T
  10   -223.2025546 -0.563511E-06  0.136E-03    1.34       6.7  T
  11   -223.2025546 -0.636830E-07  0.784E-04    1.34      11.7  T
  12   -223.2025547 -0.412265E-07  0.503E-04    1.34      18.2  T
     SCC iter.                  ...        0 min,  0.377 sec
     gradient                   ...        0 min,  0.139 sec
 * total energy  :  -219.6517072 Eh     change       -0.3925914E-01 Eh
   gradient norm :     0.0783713 Eh/α   predicted    -0.3532210E-01 ( -10.03%)
   displ. norm   :     0.8968556 α      lambda       -0.4771668E-01
   maximum displ.:     0.4939466 α      in ANC's #12, #35, #87, ...

........................................................................
.............................. CYCLE   16 ..............................
........................................................................
   1   -223.2087244 -0.223209E+03  0.332E-01    1.31       0.0  T
   2   -223.2072866  0.143780E-02  0.262E-01    1.30       1.0  T
   3   -223.2040906  0.319606E-02  0.228E-01    1.27       1.0  T
   4   -223.2097954 -0.570480E-02  0.632E-02    1.28       1.0  T
   5   -223.2100911 -0.295704E-03  0.355E-02    1.28       1.0  T
   6   -223.2101696 -0.785078E-04  0.249E-02    1.28       1.0  T
   7   -223.2102145 -0.449419E-04  0.130E-02    1.28       1.0  T
   8   -223.2102216 -0.706883E-05  0.737E-03    1.28       1.2  T
   9   -223.2102287 -0.709321E-05  0.315E-03    1.28       2.9  T
  10   -223.2102293 -0.602639E-06  0.192E-03    1.28       4.8  T
  11   -223.2102293 -0.891853E-08  0.132E-03    1.28       7.0  T
  12   -223.2102295 -0.200656E-06  0.692E-04    1.28      13.2  T
  13   -223.2102295 -0.463158E-07  0.383E-04    1.28      24.0  T
     SCC iter.                  ...        0 min,  0.409 sec
     gradient                   ...        0 min,  0.139 sec
 * total energy  :  -219.6910978 Eh     change       -0.3939061E-01 Eh
   gradient norm :     0.0894297 Eh/α   predicted    -0.4304885E-01 (   9.29%)
   displ. norm   :     0.7901120 α      lambda       -0.3776474E-01
   maximum displ.:     0.4640105 α      in ANC's #12, #35, #25, ...

........................................................................
.............................. CYCLE   17 ..............................
........................................................................
   1   -223.2247181 -0.223225E+03  0.233E-01    1.26       0.0  T
   2   -223.2235367  0.118136E-02  0.207E-01    1.25       1.0  T
   3   -223.2239603 -0.423564E-03  0.138E-01    1.24       1.0  T
   4   -223.2252779 -0.131759E-02  0.532E-02    1.25       1.0  T
   5   -223.2256008 -0.322906E-03  0.246E-02    1.24       1.0  T
   6   -223.2256009 -0.722168E-07  0.192E-02    1.24       1.0  T
   7   -223.2256204 -0.194984E-04  0.110E-02    1.24       1.0  T
   8   -223.2256324 -0.120211E-04  0.399E-03    1.24       2.3  T
   9   -223.2256340 -0.159626E-05  0.217E-03    1.24       4.2  T
  10   -223.2256342 -0.250202E-06  0.139E-03    1.24       6.6  T
  11   -223.2256343 -0.103324E-06  0.791E-04    1.24      11.6  T
  12   -223.2256344 -0.680413E-07  0.396E-04    1.24      23.1  T
     SCC iter.                  ...        0 min,  0.377 sec
     gradient                   ...        0 min,  0.139 sec
 * total energy  :  -219.7170902 Eh     change       -0.2599236E-01 Eh
   gradient norm :     0.0840626 Eh/α   predicted    -0.3067022E-01 (  18.00%)
   displ. norm   :     0.6745176 α      lambda       -0.2792110E-01
   maximum displ.:     0.4799830 α      in ANC's #12, #25, #23, ...

........................................................................
.............................. CYCLE   18 ..............................
........................................................................
   1   -223.2750244 -0.223275E+03  0.196E-01    1.27       0.0  T
   2   -223.2749184  0.105952E-03  0.138E-01    1.27       1.0  T
   3   -223.2731657  0.175269E-02  0.119E-01    1.28       1.0  T
   4   -223.2751638 -0.199806E-02  0.381E-02    1.28       1.0  T
   5   -223.2753063 -0.142552E-03  0.192E-02    1.28       1.0  T
   6   -223.2753099 -0.356211E-05  0.133E-02    1.27       1.0  T
   7   -223.2753183 -0.844679E-05  0.601E-03    1.28       1.5  T
   8   -223.2753220 -0.370201E-05  0.224E-03    1.28       4.1  T
   9   -223.2753220  0.128960E-07  0.177E-03    1.28       5.2  T
  10   -223.2753222 -0.206080E-06  0.117E-03    1.28       7.8  T
  11   -223.2753223 -0.978201E-07  0.684E-04    1.28      13.4  T
  12   -223.2753224 -0.279573E-07  0.428E-04    1.28      21.4  T
     SCC iter.                  ...        0 min,  0.379 sec
     gradient                   ...        0 min,  0.139 sec
 * total energy  :  -219.7373102 Eh     change       -0.2022001E-01 Eh
   gradient norm :     0.0528752 Eh/α   predicted    -0.2031224E-01 (   0.46%)
   displ. norm   :     0.8610720 α      lambda       -0.2503085E-01
   maximum displ.:     0.6528260 α      in ANC's #12, #25, #23, ...

........................................................................
.............................. CYCLE   19 ..............................
........................................................................
   1   -223.3211898 -0.223321E+03  0.259E-01    1.29       0.0  T
   2   -223.3212269 -0.370897E-04  0.163E-01    1.24       1.0  T
   3   -223.3193782  0.184874E-02  0.110E-01    1.27       1.0  T
   4   -223.3211996 -0.182149E-02  0.395E-02    1.26       1.0  T
   5   -223.3213676 -0.167911E-03  0.170E-02    1.25       1.0  T
   6   -223.3213629  0.470536E-05  0.123E-02    1.25       1.0  T
   7   -223.3213739 -0.110127E-04  0.519E-03    1.25       1.8  T
   8   -223.3213773 -0.347498E-05  0.195E-03    1.25       4.7  T
   9   -223.3213775 -0.172055E-06  0.128E-03    1.25       7.1  T
  10   -223.3213776 -0.855704E-07  0.814E-04    1.25      11.3  T
  11   -223.3213776 -0.413525E-07  0.441E-04    1.25      20.8  T
     SCC iter.                  ...        0 min,  0.349 sec
     gradient                   ...        0 min,  0.139 sec
 * total energy  :  -219.7533032 Eh     change       -0.1599303E-01 Eh
   gradient norm :     0.0601401 Eh/α   predicted    -0.2179492E-01 (  36.28%)
   displ. norm   :     0.8214112 α      lambda       -0.2503457E-01
   maximum displ.:     0.6344053 α      in ANC's #12, #25, #23, ...

........................................................................
.............................. CYCLE   20 ..............................
........................................................................
   1   -223.3640842 -0.223364E+03  0.217E-01    1.25       0.0  T
   2   -223.3639233  0.160960E-03  0.149E-01    1.21       1.0  T
   3   -223.3613853  0.253797E-02  0.145E-01    1.23       1.0  T
   4   -223.3642075 -0.282216E-02  0.336E-02    1.23       1.0  T
   5   -223.3643593 -0.151888E-03  0.141E-02    1.21       1.0  T
   6   -223.3643653 -0.597864E-05  0.103E-02    1.21       1.0  T
   7   -223.3643715 -0.616266E-05  0.488E-03    1.21       1.9  T
   8   -223.3643735 -0.201683E-05  0.195E-03    1.21       4.7  T
   9   -223.3643738 -0.281991E-06  0.124E-03    1.21       7.4  T
  10   -223.3643739 -0.796160E-07  0.835E-04    1.21      11.0  T
  11   -223.3643739 -0.380079E-07  0.496E-04    1.21      18.5  T
     SCC iter.                  ...        0 min,  0.346 sec
     gradient                   ...        0 min,  0.139 sec
 * total energy  :  -219.7701291 Eh     change       -0.1682591E-01 Eh
   gradient norm :     0.0556879 Eh/α   predicted    -0.2096291E-01 (  24.59%)
   displ. norm   :     0.7947417 α      lambda       -0.1903685E-01
   maximum displ.:     0.6245930 α      in ANC's #12, #23, #25, ...
 * RMSD in coord.:     1.0674928 α      energy gain  -0.1032605E+01 Eh

generating ANC from model Hessian ...
Using Lindh-Hessian (1995)
 Shifting diagonal of input Hessian by    1.0005710832831013E-002
 Lowest  eigenvalues of input Hessian
    0.010000    0.010002    0.010005    0.000000    0.000000    0.000000
    0.000000    0.000000    0.000000    0.010008    0.010020    0.010024
    0.010032    0.010040    0.010058    0.010090    0.010391    0.010529
 Highest eigenvalues
    2.115510    2.116638    2.351770    2.371969    2.639615    2.674512


........................................................................
.............................. CYCLE   21 ..............................
........................................................................
   1   -223.3955044 -0.223396E+03  0.146E-01    1.23       0.0  T
   2   -223.3954666  0.378377E-04  0.104E-01    1.22       1.0  T
   3   -223.3943992  0.106734E-02  0.817E-02    1.23       1.0  T
   4   -223.3955321 -0.113292E-02  0.330E-02    1.22       1.0  T
   5   -223.3956697 -0.137521E-03  0.167E-02    1.22       1.0  T
   6   -223.3956786 -0.894162E-05  0.116E-02    1.22       1.0  T
   7   -223.3956819 -0.331674E-05  0.483E-03    1.22       1.9  T
   8   -223.3956844 -0.250099E-05  0.217E-03    1.22       4.2  T
   9   -223.3956849 -0.506289E-06  0.135E-03    1.22       6.8  T
  10   -223.3956850 -0.886914E-07  0.866E-04    1.22      10.6  T
  11   -223.3956850 -0.194793E-07  0.603E-04    1.22      15.2  T
     SCC iter.                  ...        0 min,  0.346 sec
     gradient                   ...        0 min,  0.140 sec
 * total energy  :  -219.7858399 Eh     change       -0.1571075E-01 Eh
   gradient norm :     0.0378423 Eh/α   predicted     0.0000000E+00 (-100.00%)
   displ. norm   :     0.7142668 α      lambda       -0.1440180E-01
   maximum displ.:     0.5471162 α      in ANC's #16, #18, #20, ...

........................................................................
.............................. CYCLE   22 ..............................
........................................................................
   1   -223.4213499 -0.223421E+03  0.884E-02    1.21       0.0  T
   2   -223.4213418  0.806089E-05  0.571E-02    1.22       1.0  T
   3   -223.4209489  0.392906E-03  0.519E-02    1.22       1.0  T
   4   -223.4213622 -0.413354E-03  0.119E-02    1.22       1.0  T
   5   -223.4213718 -0.953809E-05  0.716E-03    1.22       1.3  T
   6   -223.4213720 -0.206007E-06  0.500E-03    1.22       1.8  T
   7   -223.4213729 -0.887114E-06  0.251E-03    1.22       3.7  T
   8   -223.4213736 -0.762126E-06  0.101E-03    1.22       9.1  T
   9   -223.4213738 -0.125253E-06  0.483E-04    1.22      19.0  T
  10   -223.4213738 -0.210292E-09  0.400E-04    1.22      22.9  T
     SCC iter.                  ...        0 min,  0.315 sec
     gradient                   ...        0 min,  0.140 sec
 * total energy  :  -219.7997075 Eh     change       -0.1386764E-01 Eh
   gradient norm :     0.0262012 Eh/α   predicted    -0.1097277E-01 ( -20.88%)
   displ. norm   :     0.9010565 α      lambda       -0.1690963E-01
   maximum displ.:     0.6419151 α      in ANC's #16, #18, #20, ...

........................................................................
.............................. CYCLE   23 ..............................
........................................................................
   1   -223.4483741 -0.223448E+03  0.124E-01    1.21       0.0  T
   2   -223.4483603  0.137982E-04  0.789E-02    1.22       1.0  T
   3   -223.4476276  0.732712E-03  0.705E-02    1.21       1.0  T
   4   -223.4483954 -0.767744E-03  0.158E-02    1.21       1.0  T
   5   -223.4484151 -0.197671E-04  0.897E-03    1.21       1.0  T
   6   -223.4484154 -0.289232E-06  0.641E-03    1.22       1.4  T
   7   -223.4484168 -0.133456E-05  0.327E-03    1.22       2.8  T
   8   -223.4484181 -0.132528E-05  0.127E-03    1.21       7.2  T
   9   -223.4484183 -0.172509E-06  0.638E-04    1.21      14.4  T
  10   -223.4484183  0.109134E-08  0.526E-04    1.21      17.4  T
     SCC iter.                  ...        0 min,  0.316 sec
     gradient                   ...        0 min,  0.140 sec
 * total energy  :  -219.8154398 Eh     change       -0.1573229E-01 Eh
   gradient norm :     0.0203216 Eh/α   predicted    -0.1531931E-01 (  -2.63%)
   displ. norm   :     0.9321631 α      lambda       -0.1670548E-01
   maximum displ.:     0.6774572 α      in ANC's #16, #18, #20, ...

........................................................................
.............................. CYCLE   24 ..............................
........................................................................
   1   -223.4746509 -0.223475E+03  0.157E-01    1.20       0.0  T
   2   -223.4746420  0.883535E-05  0.971E-02    1.21       1.0  T
   3   -223.4738088  0.833201E-03  0.739E-02    1.21       1.0  T
   4   -223.4746709 -0.862031E-03  0.158E-02    1.21       1.0  T
   5   -223.4746910 -0.200830E-04  0.896E-03    1.21       1.0  T
   6   -223.4746908  0.132393E-06  0.633E-03    1.21       1.4  T
   7   -223.4746922 -0.140440E-05  0.322E-03    1.21       2.8  T
   8   -223.4746936 -0.133170E-05  0.120E-03    1.21       7.6  T
   9   -223.4746937 -0.147965E-06  0.555E-04    1.21      16.5  T
  10   -223.4746937  0.317851E-08  0.395E-04    1.21      23.2  T
     SCC iter.                  ...        0 min,  0.315 sec
     gradient                   ...        0 min,  0.140 sec
 * total energy  :  -219.8301813 Eh     change       -0.1474152E-01 Eh
   gradient norm :     0.0278221 Eh/α   predicted    -0.1561071E-01 (   5.90%)
   displ. norm   :     0.9092861 α      lambda       -0.1546876E-01
   maximum displ.:     0.6493694 α      in ANC's #16, #18, #20, ...

........................................................................
.............................. CYCLE   25 ..............................
........................................................................
   1   -223.5042877 -0.223504E+03  0.138E-01    1.21       0.0  T
   2   -223.5042882 -0.470848E-06  0.853E-02    1.22       1.0  T
   3   -223.5038304  0.457709E-03  0.504E-02    1.22       1.0  T
   4   -223.5042921 -0.461667E-03  0.149E-02    1.21       1.0  T
   5   -223.5043119 -0.197511E-04  0.911E-03    1.22       1.0  T
   6   -223.5043116  0.315389E-06  0.644E-03    1.22       1.4  T
   7   -223.5043135 -0.193016E-05  0.338E-03    1.22       2.7  T
   8   -223.5043153 -0.183901E-05  0.106E-03    1.22       8.6  T
   9   -223.5043154 -0.126288E-06  0.457E-04    1.22      20.1  T
  10   -223.5043154  0.418325E-08  0.353E-04    1.22      26.0  T
     SCC iter.                  ...        0 min,  0.315 sec
     gradient                   ...        0 min,  0.141 sec
 * total energy  :  -219.8442847 Eh     change       -0.1410340E-01 Eh
   gradient norm :     0.0285564 Eh/α   predicted    -0.1412917E-01 (   0.18%)
   displ. norm   :     0.9193708 α      lambda       -0.1549185E-01
   maximum displ.:     0.6652030 α      in ANC's #16, #18, #20, ...

........................................................................
.............................. CYCLE   26 ..............................
........................................................................
   1   -223.5371407 -0.223537E+03  0.154E-01    1.22       0.0  T
   2   -223.5371386  0.212105E-05  0.953E-02    1.23       1.0  T
   3   -223.5364946  0.643988E-03  0.553E-02    1.23       1.0  T
   4   -223.5371401 -0.645475E-03  0.172E-02    1.23       1.0  T
   5   -223.5371682 -0.281348E-04  0.106E-02    1.23       1.0  T
   6   -223.5371695 -0.128020E-05  0.698E-03    1.23       1.3  T
   7   -223.5371720 -0.242378E-05  0.290E-03    1.23       3.2  T
   8   -223.5371730 -0.999446E-06  0.114E-03    1.23       8.1  T
   9   -223.5371731 -0.124601E-06  0.562E-04    1.23      16.3  T
  10   -223.5371731 -0.333910E-08  0.437E-04    1.23      21.0  T
     SCC iter.                  ...        0 min,  0.314 sec
     gradient                   ...        0 min,  0.141 sec
 * total energy  :  -219.8579924 Eh     change       -0.1370764E-01 Eh
   gradient norm :     0.0222568 Eh/α   predicted    -0.1429312E-01 (   4.27%)
   displ. norm   :     0.9133846 α      lambda       -0.1395419E-01
   maximum displ.:     0.6733141 α      in ANC's #16, #18, #20, ...

........................................................................
.............................. CYCLE   27 ..............................
........................................................................
   1   -223.5698465 -0.223570E+03  0.128E-01    1.23       0.0  T
   2   -223.5698379  0.857002E-05  0.816E-02    1.24       1.0  T
   3   -223.5690876  0.750349E-03  0.616E-02    1.24       1.0  T
   4   -223.5698556 -0.768056E-03  0.168E-02    1.24       1.0  T
   5   -223.5698771 -0.214764E-04  0.110E-02    1.24       1.0  T
   6   -223.5698789 -0.180660E-05  0.725E-03    1.24       1.3  T
   7   -223.5698817 -0.274951E-05  0.318E-03    1.24       2.9  T
   8   -223.5698828 -0.112465E-05  0.112E-03    1.24       8.2  T
   9   -223.5698829 -0.122997E-06  0.505E-04    1.24      18.1  T
  10   -223.5698829  0.302077E-08  0.411E-04    1.24      22.3  T
     SCC iter.                  ...        0 min,  0.316 sec
     gradient                   ...        0 min,  0.141 sec
 * total energy  :  -219.8711275 Eh     change       -0.1313512E-01 Eh
   gradient norm :     0.0181152 Eh/α   predicted    -0.1279789E-01 (  -2.57%)
   displ. norm   :     0.9205289 α      lambda       -0.1312760E-01
   maximum displ.:     0.6824226 α      in ANC's #16, #18, #20, ...

........................................................................
.............................. CYCLE   28 ..............................
........................................................................
   1   -223.5995353 -0.223600E+03  0.123E-01    1.24       0.0  T
   2   -223.5995240  0.113737E-04  0.797E-02    1.24       1.0  T
   3   -223.5987549  0.769049E-03  0.636E-02    1.24       1.0  T
   4   -223.5995516 -0.796687E-03  0.163E-02    1.24       1.0  T
   5   -223.5995674 -0.158064E-04  0.112E-02    1.24       1.0  T
   6   -223.5995691 -0.167806E-05  0.738E-03    1.24       1.2  T
   7   -223.5995724 -0.327616E-05  0.325E-03    1.24       2.8  T
   8   -223.5995735 -0.113383E-05  0.112E-03    1.24       8.2  T
   9   -223.5995736 -0.118168E-06  0.454E-04    1.24      20.2  T
  10   -223.5995736  0.401954E-08  0.339E-04    1.24      27.1  T
     SCC iter.                  ...        0 min,  0.314 sec
     gradient                   ...        0 min,  0.142 sec
 * total energy  :  -219.8835063 Eh     change       -0.1237882E-01 Eh
   gradient norm :     0.0151141 Eh/α   predicted    -0.1212580E-01 (  -2.04%)
   displ. norm   :     0.9230753 α      lambda       -0.1207157E-01
   maximum displ.:     0.6835576 α      in ANC's #16, #18, #20, ...

........................................................................
.............................. CYCLE   29 ..............................
........................................................................
   1   -223.6281050 -0.223628E+03  0.111E-01    1.23       0.0  T
   2   -223.6280968  0.813990E-05  0.727E-02    1.23       1.0  T
   3   -223.6275052  0.591616E-03  0.577E-02    1.24       1.0  T
   4   -223.6281211 -0.615890E-03  0.152E-02    1.23       1.0  T
   5   -223.6281313 -0.101769E-04  0.105E-02    1.23       1.0  T
   6   -223.6281329 -0.166203E-05  0.612E-03    1.23       1.5  T
   7   -223.6281354 -0.244714E-05  0.264E-03    1.23       3.5  T
   8   -223.6281361 -0.719983E-06  0.111E-03    1.23       8.3  T
   9   -223.6281362 -0.131867E-06  0.398E-04    1.23      23.1  T
  10   -223.6281362  0.257964E-08  0.276E-04    1.23      33.2  T
     SCC iter.                  ...        0 min,  0.315 sec
     gradient                   ...        0 min,  0.142 sec
 * total energy  :  -219.8950696 Eh     change       -0.1156330E-01 Eh
   gradient norm :     0.0149179 Eh/α   predicted    -0.1117868E-01 (  -3.33%)
   displ. norm   :     0.9238855 α      lambda       -0.1134667E-01
   maximum displ.:     0.6852119 α      in ANC's #16, #18, #20, ...

........................................................................
.............................. CYCLE   30 ..............................
........................................................................
   1   -223.6563530 -0.223656E+03  0.115E-01    1.23       0.0  T
   2   -223.6563470  0.595404E-05  0.745E-02    1.23       1.0  T
   3   -223.6558167  0.530373E-03  0.562E-02    1.23       1.0  T
   4   -223.6563683 -0.551599E-03  0.148E-02    1.23       1.0  T
   5   -223.6563754 -0.710539E-05  0.104E-02    1.23       1.0  T
   6   -223.6563771 -0.171308E-05  0.553E-03    1.23       1.7  T
   7   -223.6563791 -0.199912E-05  0.236E-03    1.23       3.9  T
   8   -223.6563798 -0.754159E-06  0.115E-03    1.23       8.0  T
   9   -223.6563800 -0.202997E-06  0.379E-04    1.23      24.2  T
  10   -223.6563800  0.457561E-09  0.248E-04    1.23      37.0  T
     SCC iter.                  ...        0 min,  0.315 sec
     gradient                   ...        0 min,  0.142 sec
 * total energy  :  -219.9058943 Eh     change       -0.1082465E-01 Eh
   gradient norm :     0.0134541 Eh/α   predicted    -0.1051589E-01 (  -2.85%)
   displ. norm   :     0.9229796 α      lambda       -0.1058495E-01
   maximum displ.:     0.6887727 α      in ANC's #16, #18, #20, ...

........................................................................
.............................. CYCLE   31 ..............................
........................................................................
   1   -223.6834832 -0.223683E+03  0.116E-01    1.22       0.0  T
   2   -223.6834778  0.534308E-05  0.756E-02    1.22       1.0  T
   3   -223.6829603  0.517481E-03  0.565E-02    1.22       1.0  T
   4   -223.6834981 -0.537771E-03  0.150E-02    1.22       1.0  T
   5   -223.6835047 -0.662776E-05  0.107E-02    1.22       1.0  T
   6   -223.6835061 -0.135757E-05  0.585E-03    1.22       1.6  T
   7   -223.6835086 -0.252787E-05  0.250E-03    1.22       3.7  T
   8   -223.6835096 -0.949850E-06  0.984E-04    1.22       9.3  T
   9   -223.6835097 -0.128492E-06  0.372E-04    1.22      24.6  T
     SCC iter.                  ...        0 min,  0.284 sec
     gradient                   ...        0 min,  0.144 sec
 * total energy  :  -219.9159356 Eh     change       -0.1004130E-01 Eh
   gradient norm :     0.0119019 Eh/α   predicted    -0.9801095E-02 (  -2.39%)
   displ. norm   :     0.9311491 α      lambda       -0.1005803E-01
   maximum displ.:     0.6920217 α      in ANC's #16, #18, #20, ...

........................................................................
.............................. CYCLE   32 ..............................
........................................................................
   1   -223.7087185 -0.223709E+03  0.141E-01    1.21       0.0  T
   2   -223.7087128  0.578647E-05  0.899E-02    1.21       1.0  T
   3   -223.7081084  0.604379E-03  0.609E-02    1.21       1.0  T
   4   -223.7087359 -0.627490E-03  0.156E-02    1.21       1.0  T
   5   -223.7087417 -0.581504E-05  0.113E-02    1.21       1.0  T
   6   -223.7087439 -0.224951E-05  0.565E-03    1.21       1.6  T
   7   -223.7087464 -0.250732E-05  0.198E-03    1.21       4.6  T
   8   -223.7087469 -0.431953E-06  0.107E-03    1.21       8.5  T
   9   -223.7087470 -0.149442E-06  0.414E-04    1.21      22.1  T
  10   -223.7087470  0.231793E-08  0.283E-04    1.21      32.4  T
     SCC iter.                  ...        0 min,  0.315 sec
     gradient                   ...        0 min,  0.143 sec
 * total energy  :  -219.9248634 Eh     change       -0.8927832E-02 Eh
   gradient norm :     0.0135025 Eh/α   predicted    -0.9389373E-02 (   5.17%)
   displ. norm   :     0.8959847 α      lambda       -0.9529831E-02
   maximum displ.:     0.6732298 α      in ANC's #16, #18, #20, ...

........................................................................
.............................. CYCLE   33 ..............................
........................................................................
   1   -223.7352594 -0.223735E+03  0.128E-01    1.20       0.0  T
   2   -223.7352578  0.161615E-05  0.826E-02    1.20       1.0  T
   3   -223.7348113  0.446475E-03  0.515E-02    1.20       1.0  T
   4   -223.7352719 -0.460521E-03  0.154E-02    1.20       1.0  T
   5   -223.7352787 -0.680817E-05  0.109E-02    1.20       1.0  T
   6   -223.7352814 -0.268720E-05  0.502E-03    1.20       1.8  T
   7   -223.7352836 -0.226015E-05  0.116E-03    1.20       7.9  T
   8   -223.7352836 -0.169981E-07  0.939E-04    1.20       9.8  T
   9   -223.7352838 -0.140186E-06  0.428E-04    1.20      21.4  T
     SCC iter.                  ...        0 min,  0.285 sec
     gradient                   ...        0 min,  0.143 sec
 * total energy  :  -219.9334556 Eh     change       -0.8592251E-02 Eh
   gradient norm :     0.0103758 Eh/α   predicted    -0.8590141E-02 (  -0.02%)
   displ. norm   :     0.9130492 α      lambda       -0.8175209E-02
   maximum displ.:     0.6893457 α      in ANC's #16, #18, #20, ...

........................................................................
.............................. CYCLE   34 ..............................
........................................................................
   1   -223.7593308 -0.223759E+03  0.111E-01    1.20       0.0  T
   2   -223.7593249  0.593143E-05  0.743E-02    1.19       1.0  T
   3   -223.7587880  0.536888E-03  0.569E-02    1.20       1.0  T
   4   -223.7593470 -0.558980E-03  0.152E-02    1.19       1.0  T
   5   -223.7593525 -0.558507E-05  0.108E-02    1.19       1.0  T
   6   -223.7593551 -0.258047E-05  0.502E-03    1.19       1.8  T
   7   -223.7593575 -0.239178E-05  0.148E-03    1.19       6.2  T
   8   -223.7593577 -0.162887E-06  0.920E-04    1.19      10.0  T
   9   -223.7593578 -0.935060E-07  0.352E-04    1.19      26.1  T
     SCC iter.                  ...        0 min,  0.283 sec
     gradient                   ...        0 min,  0.143 sec
 * total energy  :  -219.9411657 Eh     change       -0.7710054E-02 Eh
   gradient norm :     0.0089162 Eh/α   predicted    -0.7495269E-02 (  -2.79%)
   displ. norm   :     0.9115969 α      lambda       -0.7405886E-02
   maximum displ.:     0.6915110 α      in ANC's #16, #18, #20, ...

........................................................................
.............................. CYCLE   35 ..............................
........................................................................
   1   -223.7838386 -0.223784E+03  0.110E-01    1.19       0.0  T
   2   -223.7838324  0.614205E-05  0.738E-02    1.19       1.0  T
   3   -223.7832966  0.535779E-03  0.567E-02    1.19       1.0  T
   4   -223.7838545 -0.557836E-03  0.151E-02    1.19       1.0  T
   5   -223.7838591 -0.465444E-05  0.108E-02    1.19       1.0  T
   6   -223.7838622 -0.306556E-05  0.483E-03    1.19       1.9  T
   7   -223.7838644 -0.221395E-05  0.143E-03    1.19       6.4  T
   8   -223.7838646 -0.153395E-06  0.889E-04    1.19      10.3  T
   9   -223.7838647 -0.876159E-07  0.342E-04    1.19      26.8  T
     SCC iter.                  ...        0 min,  0.285 sec
     gradient                   ...        0 min,  0.143 sec
 * total energy  :  -219.9481080 Eh     change       -0.6942279E-02 Eh
   gradient norm :     0.0082847 Eh/α   predicted    -0.6780123E-02 (  -2.34%)
   displ. norm   :     0.9089875 α      lambda       -0.6649829E-02
   maximum displ.:     0.6896582 α      in ANC's #16, #18, #20, ...

........................................................................
.............................. CYCLE   36 ..............................
........................................................................
   1   -223.8082202 -0.223808E+03  0.112E-01    1.18       0.0  T
   2   -223.8082143  0.594586E-05  0.751E-02    1.18       1.0  T
   3   -223.8076786  0.535665E-03  0.565E-02    1.18       1.0  T
   4   -223.8082359 -0.557304E-03  0.152E-02    1.18       1.0  T
   5   -223.8082399 -0.393600E-05  0.109E-02    1.18       1.0  T
   6   -223.8082433 -0.344137E-05  0.476E-03    1.18       1.9  T
   7   -223.8082455 -0.221242E-05  0.138E-03    1.18       6.6  T
   8   -223.8082457 -0.149636E-06  0.833E-04    1.18      11.0  T
   9   -223.8082457 -0.704162E-07  0.321E-04    1.18      28.5  T
     SCC iter.                  ...        0 min,  0.284 sec
     gradient                   ...        0 min,  0.143 sec
 * total energy  :  -219.9543033 Eh     change       -0.6195340E-02 Eh
   gradient norm :     0.0071747 Eh/α   predicted    -0.6072158E-02 (  -1.99%)
   displ. norm   :     0.9055561 α      lambda       -0.5862255E-02
   maximum displ.:     0.6863255 α      in ANC's #16, #18, #20, ...

........................................................................
.............................. CYCLE   37 ..............................
........................................................................
   1   -223.8300953 -0.223830E+03  0.111E-01    1.18       0.0  T
   2   -223.8300887  0.660583E-05  0.749E-02    1.17       1.0  T
   3   -223.8295395  0.549204E-03  0.578E-02    1.18       1.0  T
   4   -223.8301123 -0.572799E-03  0.151E-02    1.17       1.0  T
   5   -223.8301155 -0.327518E-05  0.108E-02    1.17       1.0  T
   6   -223.8301190 -0.349243E-05  0.450E-03    1.17       2.0  T
   7   -223.8301211 -0.203684E-05  0.109E-03    1.17       8.4  T
[...]
 137: 11.38 138: 11.56 139: 11.56 140: 11.52 141: 11.40 142: 11.43 143: 11.43 144: 11.73
 145: 11.57 146: 10.98 147: 10.99 148: 11.05 149: 11.03 150: 11.50 151: 11.18 152: 11.18
 153: 11.08 154: 11.23 155: 11.33 156: 11.41 157: 11.21 158: 11.39 159: 11.39 160: 11.01
 161: 11.00 162: 11.70 163: 11.74 164: 11.68 165: 11.89 166:  3.79 167:  3.87 168:  3.85
 169:  3.87 170:  3.87 171:  3.83 172:  3.97 173:  3.97 174:  4.28 175:  4.23 176:  4.29
 177:  4.29 178:  3.87 179:  3.87 180:  3.96 181:  3.95 182:  3.90 183:  3.93 184:  4.08
 185:  4.08 186:  3.47 187:  3.48 188:  3.38 189:  3.39 190:  3.50 191:  3.38 192:  3.39
 193:  3.45 194:  3.44 195:  3.49 196:  3.49 197:  3.49 198: 11.47 199: 11.52 200: 11.81
 201: 11.89 202: 12.37 203: 12.35 204: 12.01 205: 12.14 206: 12.14 207: 12.25 208: 11.51
 209: 11.31 210:  8.99 211:  8.99 212:  8.41 213:  9.69 214:  9.70 215: 10.22 216:  9.33
 217:  9.33 218: 10.27 219:  9.04 220:  9.03 221:  8.80 222:  1.54 223:  1.54 224:  1.73
 225:  1.77 226:  1.81 227:  1.76 228:  1.87 229:  1.86 230:  1.86 231:  2.14 232:  2.12
 233:  2.00 234:  9.15 235:  9.58 236:  5.36 237:  5.51 238:  5.51 239:  5.78 240:  6.77
 241:  6.91 242:  6.21 243:  7.13 244:  7.13 245:  6.71 246:  7.12 247:  8.61 248:  8.64
 249:  8.64 250:  8.29 251:  8.36 252:  8.16 253:  9.50 254: 12.15 255: 12.10 256:  8.97
 257:  8.95 258: 11.11 259: 10.61 260: 10.62 261: 10.81 262: 10.81 263: 10.73 264: 10.30
 265: 10.31 266: 10.35 267: 12.36 268: 11.64 269: 11.43 270: 11.41 271: 10.12 272: 10.12
 273:  9.23 274: 12.23 275: 12.00 276: 11.70 277:  9.65 278:  9.93 279:  9.84 280:  9.19
 281:  9.19 282: 11.68 283: 11.74 284: 11.56 285: 11.52 286: 11.52 287: 11.56 288: 11.64
 289: 11.60 290: 11.65 291: 11.76 292: 11.79 293: 11.56 294: 11.74 295: 11.48 296: 11.48
 297: 11.73 298: 11.77 299: 11.70 300: 11.72 301: 11.82 302: 11.82 303: 11.89 304: 11.75
 305: 11.79 306: 11.67 307: 11.67 308: 11.54 309: 11.57 310: 11.59 311: 11.59 312: 11.60
 313: 11.60 314: 11.63 315: 11.63 316: 11.66 317: 11.78 318: 11.77 319: 11.77 320: 12.01
 321: 12.01 322: 12.01 323: 12.01 324: 12.01 325: 12.01 326:  1.82 327:  1.82 328:  1.82
 329:  1.82 330:  1.82 331:  1.82 332:  1.82 333:  1.82 334:  1.81 335:  1.81 336:  1.81
 337:  1.81 338:  1.81 339:  1.81 340:  1.81 341:  1.81 342:  1.81 343:  1.81 344:  1.81
 345:  1.81 346:  1.98 347:  1.98 348:  1.98 349:  1.98 350:  1.97 351:  1.97 352:  1.97
 353:  1.97 354:  1.97 355:  1.97 356:  1.97 357:  1.97
 IR intensities (km·mol⁻¹)
   1:  0.07   2:  1.78   3:  0.14   4:  0.46   5:  0.61   6:  0.70   7: 37.03   8:  0.51
   9:  4.20  10:  1.00  11:  0.00  12:  0.07  13:  0.24  14:  6.15  15:  1.19  16:  1.12
  17:  2.70  18:  8.79  19:  0.03  20:  0.00  21: 14.72  22: 53.87  23:  0.03  24:  8.82
  25:  2.26  26:  0.70  27:  1.32  28:  0.18  29:  0.81  30: 10.93  31:  4.55  32:  0.26
  33:  0.29  34:  0.60  35:  0.73  36:  4.09  37:  5.07  38: 12.66  39:  0.05  40:  0.15
  41:  1.97  42:  0.02  43:  3.02  44:  0.13  45:  0.04  46:  3.43  47:  0.06  48:  0.51
  49:  0.04  50:  2.66  51:  0.26  52:  1.90  53:  5.65  54:  0.54  55:  0.22  56:  0.44
  57:  0.49  58:  2.91  59:  2.67  60:  0.12  61:  0.53  62:  0.01  63:  0.03  64:  0.07
  65:  3.42  66:  0.01  67:  0.70  68:  4.80  69: 29.00  70: 23.16  71:  9.57  72:  1.44
  73: 22.59  74:  0.16  75:  0.71  76:  3.02  77:  0.08  78:  5.44  79:  0.07  80:  0.04
  81:  0.04  82:  0.01  83:  0.02  84: 13.42  85: 12.03  86:  0.05  87:  2.18  88:  0.10
  89:  1.98  90:  0.43  91:  0.05  92:  0.02  93: 10.43  94:  1.70  95:  0.03  96:  1.47
  97:  1.35  98:  0.20  99:  6.31 100:  5.12 101:  5.95 102: 20.58 103: 14.86 104:  5.27
 105:  2.82 106:  0.37 107:  0.01 108:  1.69 109:  0.01 110:  1.06 111:  0.14 112:  0.14
 113:  0.11 114:  0.02 115: 10.33 116: 19.96 117:  6.07 118: 22.28 119:  1.06 120:  0.49
 121:  0.13 122:  3.60 123:  0.01 124:  0.00 125:  0.50 126:  0.01 127:  1.06 128:  0.22
 129:  0.36 130:  0.04 131:  1.53 132:  1.30 133:  8.90 134:  3.75 135:  0.88 136:  1.44
 137:  0.27 138:  7.66 139: 10.68 140:  2.14 141: 12.29 142: 17.92 143: 31.27 144:  0.00
 145:  7.26 146:  4.69 147:  2.41 148:  0.03 149: 14.94 150:  0.06 151:  0.37 152:  0.30
 153:  0.03 154:  0.01 155:  7.87 156:  0.97 157:  0.00 158: 22.52 159: 19.10 160:  0.30
 161:  0.01 162: 12.18 163:  2.31 164:  0.24 165: 27.61 166: 18.14 167: 17.23 168: 28.48
 169:  5.05 170:  2.15 171:  0.09 172:  8.16 173:  6.78 174:  1.01 175:  6.13 176:  0.06
 177: 29.99 178:  3.15 179: 49.82 180:  0.42 181:  0.98 182: 99.83 183:  0.45 184: 44.62
 185:185.82 186: 70.61 187:  2.50 188:  0.16 189:  9.88 190: 22.12 191:  0.30 192:  0.32
 193:  4.13 194:  0.16 195:  1.23 196:  0.09 197:  0.28 198: 11.80 199:  0.00 200:  2.58
 201:  0.01 202:  0.27 203: 47.77 204:  0.00 205: 15.84 206: 25.11 207: 27.74 208:  7.05
 209:  0.01 210:  0.17 211:  0.45 212:  0.02 213:  0.06 214:  0.17 215:  5.36 216:  0.85
 217:  0.08 218:  0.04 219: 32.78 220: 17.86 221: 37.10 222:  5.18 223:  5.24 224:  1.82
 225:  0.00 226:  6.91 227:  0.01 228:  9.69 229:  0.32 230:  6.34 231:  0.02 232: 12.49
 233:  0.01 234: 81.16 235:  0.01 236:  0.09 237: 22.98 238:  0.17 239:  0.04 240:196.57
 241:  0.00 242:  0.01 243:  1.45 244:  4.62 245:  2.47 246:  0.00 247:  1.76 248:  1.25
 249:  0.13 250: 13.53 251:  0.00 252:101.06 253:  0.00 254:  9.39 255:  0.01 256: 20.62
 257: 14.18 258: 23.66 259:  6.21 260:  8.72 261:116.05 262:  0.02 263: 40.11 264:  8.21
 265:  4.31 266:  0.00 267: 42.10 268:  0.04 269:  3.93 270: 19.84 271: 14.36 272:  8.29
 273:  0.09 274:  0.15 275: 84.02 276:  0.01 277: 23.93 278:  0.39 279:  3.11 280:  2.92
 281:  4.95 282: 77.44 283:  0.63 284:  8.20 285: 18.84 286: 14.19 287:  1.31 288:  0.09
 289: 98.01 290:  0.01 291: 39.17 292:  0.03 293:  0.06 294:  0.01 295:  1.40 296:  0.74
 297: 73.64 298:  0.04 299:  0.03 300: 54.59 301:  2.13 302:  2.13 303: 16.01 304:  0.02
 305:101.94 306: 62.07 307: 50.41 308: 24.97 309:  0.01 310: 11.52 311:  5.88 312:  4.69
 313:  3.78 314:297.09 315:  9.66 316:213.39 317:  0.02 318:  0.98 319:  0.54 320:  0.33
 321: 27.60 322:  0.44 323:  1.57 324:  0.00 325:  0.87 326:  3.41 327:  3.97 328:  0.01
 329:  0.01 330:  2.11 331:  2.15 332: 32.54 333:  0.62 334: 11.27 335: 20.43 336: 22.93
 337: 21.80 338: 20.58 339: 50.21 340:  2.65 341:  8.66 342: 18.55 343:  8.91 344: 79.74
 345:  7.44 346: 98.88 347:150.17 348:463.73 349: 83.09 350: 25.66 351:105.63 352:  0.22
 353:  0.16 354:  0.14 355:157.18 356: 51.89 357:  1.01
 Raman intensities (amu)
   1:  0.00   2:  0.00   3:  0.00   4:  0.00   5:  0.00   6:  0.00   7:  0.00   8:  0.00
   9:  0.00  10:  0.00  11:  0.00  12:  0.00  13:  0.00  14:  0.00  15:  0.00  16:  0.00
  17:  0.00  18:  0.00  19:  0.00  20:  0.00  21:  0.00  22:  0.00  23:  0.00  24:  0.00
  25:  0.00  26:  0.00  27:  0.00  28:  0.00  29:  0.00  30:  0.00  31:  0.00  32:  0.00
  33:  0.00  34:  0.00  35:  0.00  36:  0.00  37:  0.00  38:  0.00  39:  0.00  40:  0.00
  41:  0.00  42:  0.00  43:  0.00  44:  0.00  45:  0.00  46:  0.00  47:  0.00  48:  0.00
  49:  0.00  50:  0.00  51:  0.00  52:  0.00  53:  0.00  54:  0.00  55:  0.00  56:  0.00
  57:  0.00  58:  0.00  59:  0.00  60:  0.00  61:  0.00  62:  0.00  63:  0.00  64:  0.00
  65:  0.00  66:  0.00  67:  0.00  68:  0.00  69:  0.00  70:  0.00  71:  0.00  72:  0.00
  73:  0.00  74:  0.00  75:  0.00  76:  0.00  77:  0.00  78:  0.00  79:  0.00  80:  0.00
  81:  0.00  82:  0.00  83:  0.00  84:  0.00  85:  0.00  86:  0.00  87:  0.00  88:  0.00
  89:  0.00  90:  0.00  91:  0.00  92:  0.00  93:  0.00  94:  0.00  95:  0.00  96:  0.00
  97:  0.00  98:  0.00  99:  0.00 100:  0.00 101:  0.00 102:  0.00 103:  0.00 104:  0.00
 105:  0.00 106:  0.00 107:  0.00 108:  0.00 109:  0.00 110:  0.00 111:  0.00 112:  0.00
 113:  0.00 114:  0.00 115:  0.00 116:  0.00 117:  0.00 118:  0.00 119:  0.00 120:  0.00
 121:  0.00 122:  0.00 123:  0.00 124:  0.00 125:  0.00 126:  0.00 127:  0.00 128:  0.00
 129:  0.00 130:  0.00 131:  0.00 132:  0.00 133:  0.00 134:  0.00 135:  0.00 136:  0.00
 137:  0.00 138:  0.00 139:  0.00 140:  0.00 141:  0.00 142:  0.00 143:  0.00 144:  0.00
 145:  0.00 146:  0.00 147:  0.00 148:  0.00 149:  0.00 150:  0.00 151:  0.00 152:  0.00
 153:  0.00 154:  0.00 155:  0.00 156:  0.00 157:  0.00 158:  0.00 159:  0.00 160:  0.00
 161:  0.00 162:  0.00 163:  0.00 164:  0.00 165:  0.00 166:  0.00 167:  0.00 168:  0.00
 169:  0.00 170:  0.00 171:  0.00 172:  0.00 173:  0.00 174:  0.00 175:  0.00 176:  0.00
 177:  0.00 178:  0.00 179:  0.00 180:  0.00 181:  0.00 182:  0.00 183:  0.00 184:  0.00
 185:  0.00 186:  0.00 187:  0.00 188:  0.00 189:  0.00 190:  0.00 191:  0.00 192:  0.00
 193:  0.00 194:  0.00 195:  0.00 196:  0.00 197:  0.00 198:  0.00 199:  0.00 200:  0.00
 201:  0.00 202:  0.00 203:  0.00 204:  0.00 205:  0.00 206:  0.00 207:  0.00 208:  0.00
 209:  0.00 210:  0.00 211:  0.00 212:  0.00 213:  0.00 214:  0.00 215:  0.00 216:  0.00
 217:  0.00 218:  0.00 219:  0.00 220:  0.00 221:  0.00 222:  0.00 223:  0.00 224:  0.00
 225:  0.00 226:  0.00 227:  0.00 228:  0.00 229:  0.00 230:  0.00 231:  0.00 232:  0.00
 233:  0.00 234:  0.00 235:  0.00 236:  0.00 237:  0.00 238:  0.00 239:  0.00 240:  0.00
 241:  0.00 242:  0.00 243:  0.00 244:  0.00 245:  0.00 246:  0.00 247:  0.00 248:  0.00
 249:  0.00 250:  0.00 251:  0.00 252:  0.00 253:  0.00 254:  0.00 255:  0.00 256:  0.00
 257:  0.00 258:  0.00 259:  0.00 260:  0.00 261:  0.00 262:  0.00 263:  0.00 264:  0.00
 265:  0.00 266:  0.00 267:  0.00 268:  0.00 269:  0.00 270:  0.00 271:  0.00 272:  0.00
 273:  0.00 274:  0.00 275:  0.00 276:  0.00 277:  0.00 278:  0.00 279:  0.00 280:  0.00
 281:  0.00 282:  0.00 283:  0.00 284:  0.00 285:  0.00 286:  0.00 287:  0.00 288:  0.00
 289:  0.00 290:  0.00 291:  0.00 292:  0.00 293:  0.00 294:  0.00 295:  0.00 296:  0.00
Refinement of some symmetry elements was terminated before convergence was reached.
Some symmetry elements may remain unidentified.
Molecule has no symmetry elements
It seems to be the C1 point group
 297:  0.00 298:  0.00 299:  0.00 300:  0.00 301:  0.00 302:  0.00 303:  0.00 304:  0.00
 305:  0.00 306:  0.00 307:  0.00 308:  0.00 309:  0.00 310:  0.00 311:  0.00 312:  0.00
 313:  0.00 314:  0.00 315:  0.00 316:  0.00 317:  0.00 318:  0.00 319:  0.00 320:  0.00
 321:  0.00 322:  0.00 323:  0.00 324:  0.00 325:  0.00 326:  0.00 327:  0.00 328:  0.00
 329:  0.00 330:  0.00 331:  0.00 332:  0.00 333:  0.00 334:  0.00 335:  0.00 336:  0.00
 337:  0.00 338:  0.00 339:  0.00 340:  0.00 341:  0.00 342:  0.00 343:  0.00 344:  0.00
 345:  0.00 346:  0.00 347:  0.00 348:  0.00 349:  0.00 350:  0.00 351:  0.00 352:  0.00
 353:  0.00 354:  0.00 355:  0.00 356:  0.00 357:  0.00
 output can be read by thermo (or use thermo option).
 writing <g98.out> molden fake output.
 recommended (thermochemical) frequency scaling factor: 1.0
           -------------------------------------------------
          |             Thermodynamic Functions             |
           -------------------------------------------------

c1  symmetry found (for desy threshold:  0.10E+00) used in thermo
 inverting freq            1   5.4395663550744624     
 inverting freq            2   3.9348177675623979     
 inverting freq            3   2.4718199419302560     

          ...................................................
          :                      SETUP                      :
          :.................................................:
          :  # frequencies                         351      :
          :  # imaginary freq.                       0      :
          :  linear?                             false      :
          :  only rotor calc.                    false      :
          :  symmetry                               c1      :
          :  rotational number                       1      :
          :  scaling factor                  1.0000000      :
          :  rotor cutoff                   50.0000000 cm⁻¹ :
          :  imag. cutoff                  -20.0000000 cm⁻¹ :
          :.................................................:

    mode    ω/cm⁻¹     T·S(HO)/kcal·mol⁻¹    T·S(FR)/kcal·mol⁻¹   T·S(vib)
   ------------------------------------------------------------------------
       1      5.44    -2.74921 (  0.01%)    -1.71371 ( 99.99%)    -1.71385
       2      3.93    -2.94106 (  0.00%)    -1.80964 (100.00%)    -1.80968
       3      2.47    -3.21651 (  0.00%)    -1.94736 (100.00%)    -1.94736
       4      2.18    -3.29072 (  0.00%)    -1.98446 (100.00%)    -1.98447
       5      3.26    -3.05286 (  0.00%)    -1.86553 (100.00%)    -1.86555
       6      4.11    -2.91522 (  0.00%)    -1.79671 (100.00%)    -1.79676
       7      6.83    -2.61405 (  0.03%)    -1.64613 ( 99.97%)    -1.64646
       8     10.39    -2.36605 (  0.19%)    -1.52211 ( 99.81%)    -1.52368
       9     11.72    -2.29443 (  0.30%)    -1.48629 ( 99.70%)    -1.48872
      10     19.66    -1.98818 (  2.33%)    -1.33309 ( 97.67%)    -1.34838
      11     23.11    -1.89240 (  4.37%)    -1.28516 ( 95.63%)    -1.31167
      12     25.44    -1.83555 (  6.28%)    -1.25670 ( 93.72%)    -1.29307
      13     26.11    -1.82020 (  6.92%)    -1.24902 ( 93.08%)    -1.28855
      14     27.11    -1.79791 (  7.96%)    -1.23786 ( 92.04%)    -1.28243
      15     31.73    -1.70498 ( 13.95%)    -1.19131 ( 86.05%)    -1.26296
      16     40.78    -1.55656 ( 30.68%)    -1.11692 ( 69.32%)    -1.25180
      17     49.19    -1.44593 ( 48.37%)    -1.06139 ( 51.63%)    -1.24738
      18     64.36    -1.28769 ( 73.30%)    -0.98177 ( 26.70%)    -1.20600
      19     78.02    -1.17475 ( 85.57%)    -0.92475 ( 14.43%)    -1.13866
      20     88.45    -1.10141 ( 90.73%)    -0.88758 (  9.27%)    -1.08159
      21     93.31    -1.07022 ( 92.38%)    -0.87174 (  7.62%)    -1.05510
      22     96.05    -1.05334 ( 93.16%)    -0.86315 (  6.84%)    -1.04033
      23     99.75    -1.03134 ( 94.06%)    -0.85194 (  5.94%)    -1.02069
      24     99.85    -1.03075 ( 94.09%)    -0.85164 (  5.91%)    -1.02016
      25    101.42    -1.02173 ( 94.42%)    -0.84704 (  5.58%)    -1.01199
      26    107.43    -0.98832 ( 95.52%)    -0.82998 (  4.48%)    -0.98122
      27    118.45    -0.93186 ( 96.92%)    -0.80104 (  3.08%)    -0.92783
      28    120.31    -0.92290 ( 97.10%)    -0.79644 (  2.90%)    -0.91924
      29    120.32    -0.92285 ( 97.10%)    -0.79641 (  2.90%)    -0.91919
      30    123.08    -0.90979 ( 97.35%)    -0.78969 (  2.65%)    -0.90660
      31    136.57    -0.85014 ( 98.23%)    -0.75889 (  1.77%)    -0.84853
      32    168.42    -0.73137 ( 99.23%)    -0.69678 (  0.77%)    -0.73110
      33    168.96    -0.72958 ( 99.24%)    -0.69584 (  0.76%)    -0.72933
      34    175.65    -0.70784 ( 99.35%)    -0.68432 (  0.65%)    -0.70768
      35    176.00    -0.70674 ( 99.35%)    -0.68374 (  0.65%)    -0.70660
      36    176.57    -0.70495 ( 99.36%)    -0.68279 (  0.64%)    -0.70481
      37    180.07    -0.69400 ( 99.41%)    -0.67697 (  0.59%)    -0.69390
      38    183.32    -0.68406 ( 99.45%)    -0.67167 (  0.55%)    -0.68399
      39    187.16    -0.67255 ( 99.49%)    -0.66553 (  0.51%)    -0.67252
      40    206.36    -0.61886 ( 99.66%)    -0.63660 (  0.34%)    -0.61892
      41    226.41    -0.56865 ( 99.76%)    -0.60913 (  0.24%)    -0.56874
      42    226.51    -0.56840 ( 99.76%)    -0.60900 (  0.24%)    -0.56850
      43    226.81    -0.56770 ( 99.76%)    -0.60861 (  0.24%)    -0.56779
      44    229.19    -0.56210 ( 99.77%)    -0.60551 (  0.23%)    -0.56219
      45    229.65    -0.56102 ( 99.78%)    -0.60492 (  0.22%)    -0.56112
      46    232.81    -0.55372 ( 99.79%)    -0.60087 (  0.21%)    -0.55382
      47    233.55    -0.55201 ( 99.79%)    -0.59993 (  0.21%)    -0.55211
      48    234.16    -0.55063 ( 99.79%)    -0.59916 (  0.21%)    -0.55073
      49    237.36    -0.54340 ( 99.80%)    -0.59514 (  0.20%)    -0.54350
      50    237.44    -0.54323 ( 99.80%)    -0.59504 (  0.20%)    -0.54333
      51    244.49    -0.52772 ( 99.83%)    -0.58637 (  0.17%)    -0.52783
      52    245.91    -0.52465 ( 99.83%)    -0.58465 (  0.17%)    -0.52475
      53    245.98    -0.52451 ( 99.83%)    -0.58457 (  0.17%)    -0.52461
      54    246.48    -0.52344 ( 99.83%)    -0.58397 (  0.17%)    -0.52355
      55    246.88    -0.52258 ( 99.83%)    -0.58349 (  0.17%)    -0.52268
      56    249.92    -0.51613 ( 99.84%)    -0.57986 (  0.16%)    -0.51624
      57    270.75    -0.47447 ( 99.88%)    -0.55614 (  0.12%)    -0.47457
      58    271.96    -0.47219 ( 99.89%)    -0.55483 (  0.11%)    -0.47228
      59    272.05    -0.47201 ( 99.89%)    -0.55472 (  0.11%)    -0.47211
      60    272.32    -0.47150 ( 99.89%)    -0.55443 (  0.11%)    -0.47159
      61    272.83    -0.47054 ( 99.89%)    -0.55388 (  0.11%)    -0.47063
      62    273.05    -0.47013 ( 99.89%)    -0.55364 (  0.11%)    -0.47022
      63    292.15    -0.43574 ( 99.91%)    -0.53361 (  0.09%)    -0.43583
      64    297.26    -0.42703 ( 99.92%)    -0.52847 (  0.08%)    -0.42711
      65    297.96    -0.42586 ( 99.92%)    -0.52778 (  0.08%)    -0.42594
   ------------------------------------------------------------------------

   temp. (K)  partition function   enthalpy   heat capacity  entropy
                                   cal/mol     cal/K/mol   cal/K/mol   J/K/mol
 298.15  VIB  0.181E+39            42570.662    273.801    272.108
         ROT  0.116E+10              888.752      2.981     44.465
         INT  0.211E+48            43459.415    276.782    316.573
         TR   0.423E+29             1481.254      4.968     47.204
         TOT                       44940.6685   281.7503   363.7775  1522.0450

       T/K    H(0)-H(T)+PV         H(T)/Eh          T*S/Eh         G(T)/Eh
   ------------------------------------------------------------------------
    298.15    0.716175E-01    0.884935E+00    0.172842E+00    0.712093E+00
   ------------------------------------------------------------------------

         :::::::::::::::::::::::::::::::::::::::::::::::::::::
         ::                  THERMODYNAMIC                  ::
         :::::::::::::::::::::::::::::::::::::::::::::::::::::
         :: total free energy        -219.268981507795 Eh   ::
         ::.................................................::
         :: total energy             -219.981074122523 Eh   ::
         :: zero point energy           0.813317524526 Eh   ::
         :: G(RRHO) w/o ZPVE           -0.101224909798 Eh   ::
         :: G(RRHO) contrib.            0.712092614728 Eh   ::
         :::::::::::::::::::::::::::::::::::::::::::::::::::::
imag cut-off (cm-1) :    5.00
 found            1  significant imaginary frequency
 writing imag mode distorted coords to xtbhess.xyz
 for further optimization.

optimized geometry written to: xtbopt.xyz


           -------------------------------------------------
          | TOTAL ENERGY             -219.981074122523 Eh   |
          | TOTAL ENTHALPY           -219.096139084103 Eh   |
          | TOTAL FREE ENERGY        -219.268981507795 Eh   |
          | GRADIENT NORM               0.000568801466 Eh/α |
          | HOMO-LUMO GAP               1.108300062300 eV   |
           -------------------------------------------------

------------------------------------------------------------------------
 * finished run on 2021/11/19 at 11:49:59.468     
------------------------------------------------------------------------
 total:
 * wall-time:     0 d,  0 h,  4 min, 53.082 sec
 *  cpu-time:     0 d,  0 h,  4 min, 53.081 sec
 * ratio c/w:     1.000 speedup
 SCF:
 * wall-time:     0 d,  0 h,  0 min,  4.945 sec
 *  cpu-time:     0 d,  0 h,  0 min,  4.945 sec
 * ratio c/w:     1.000 speedup
 ANC optimizer:
 * wall-time:     0 d,  0 h,  0 min, 37.610 sec
 *  cpu-time:     0 d,  0 h,  0 min, 37.606 sec
 * ratio c/w:     1.000 speedup
 analytical hessian:
 * wall-time:     0 d,  0 h,  4 min,  9.770 sec
 *  cpu-time:     0 d,  0 h,  4 min,  9.775 sec
 * ratio c/w:     1.000 speedup

