119
 energy: -218.737523968382 gnorm: 1.097421341267 xtb: 6.4.1 (bd6e46d)
Ni       10.46583300000000    0.03079300000000   -0.00863000000000
C        12.79482400000000   -3.11600000000000    1.31405900000000
C        13.71093200000000   -2.17179300000000    1.26377700000000
C        13.29975200000000   -1.11788900000000    0.34248500000000
C        13.91862300000000    0.00645700000000   -0.00392500000000
C        13.21458000000000    1.22640500000000   -0.36803000000000
C        13.54269100000000    2.18646000000000   -1.21550400000000
C        12.50791100000000    3.20274600000000   -1.23240200000000
C        11.57164300000000    2.82628400000000   -0.38551000000000
N        11.97363400000000    1.59327300000000    0.17830700000000
C        10.31056900000000    3.47128300000000   -0.00635800000000
C         9.21535200000000    2.83650100000000    0.34440200000000
C         8.14172600000000    3.15445600000000    1.31343000000000
C         7.30416300000000    2.15770300000000    1.23626400000000
C         7.74246100000000    1.15402000000000    0.25581200000000
N         8.84739900000000    1.59287300000000   -0.22848100000000
C         7.13162600000000   -0.09925100000000   -0.15773600000000
C         7.79578600000000   -1.20375800000000   -0.41216100000000
C         7.42193800000000   -2.26669900000000   -1.36968800000000
C         8.37068500000000   -3.16045500000000   -1.28066900000000
C         9.35640900000000   -2.72300500000000   -0.29779100000000
N         9.00336300000000   -1.57720000000000    0.19900600000000
C        10.58729700000000   -3.37907600000000    0.14793000000000
C        11.71033800000000   -2.73321400000000    0.41505100000000
N        12.03893800000000   -1.48577300000000   -0.18335300000000
H        12.85508600000000   -4.02578100000000    1.93160500000000
H        14.62725900000000   -2.21174200000000    1.84182500000000
H        14.47005600000000    2.20325600000000   -1.81664700000000
H        12.52481000000000    4.10743400000000   -1.84502300000000
H        10.26284600000000    4.56608600000000   -0.01013600000000
H         8.08890500000000    4.03318200000000    1.93842200000000
H         6.39253300000000    2.12203300000000    1.85358800000000
H         6.03337500000000   -0.09634100000000   -0.25700700000000
H         6.55308200000000   -2.31916400000000   -2.01863800000000
H         8.36783900000000   -4.07676400000000   -1.87942800000000
H        10.55181500000000   -4.47487700000000    0.25985500000000
Ni       45.36979800000000   -0.01658300000000   -0.01306300000000
C        43.04080700000001    2.83020900000000    1.87044200000000
C        42.12470000000000    1.91171900000000    1.64586800000000
C        42.53588000000000    1.04702200000000    0.54505400000000
C        41.91700900000000    0.00645700000000   -0.00392500000000
C        42.62105100000000   -1.12476800000000   -0.58802800000000
C        42.29294100000000   -1.91093900000000   -1.59889500000000
C        43.32772100000000   -2.90644900000000   -1.80403500000000
C        44.26398900000000   -2.69363200000000   -0.90200500000000
N        43.86199800000000   -1.58662000000000   -0.11923300000000
C        45.52506300000000   -3.39777300000000   -0.64909100000000
C        46.62028000000000   -2.83908100000000   -0.18665800000000
C        47.69390600000000   -3.33128600000000    0.70656400000000
C        48.53146900000000   -2.33751900000000    0.81564900000000
C        48.09317100000000   -1.16937000000000    0.03841400000000
N        46.98823300000001   -1.51076200000000   -0.51888600000000
C        48.70400600000000    0.13886500000000   -0.13545600000000
C        48.03984500000000    1.27139800000000   -0.18056200000000
C        48.41369400000000    2.49352400000000   -0.92427700000000
C        47.46494700000000    3.35525100000000   -0.67099900000000
C        46.47922300000000    2.74305700000000    0.21366500000000
N        46.83226900000000    1.52497800000000    0.48927500000000
C        45.24833500000000    3.30505100000000    0.77335900000000
C        44.12529400000000    2.62084600000000    0.91602700000000
N        43.79669400000001    1.50607100000000    0.09659200000000
H        42.98054500000000    3.60963300000000    2.64604600000000
H        41.20837300000001    1.84373900000000    2.22129400000000
H        41.36557600000000   -1.81592200000000   -2.19271900000000
H        43.31082200000000   -3.68178300000000   -2.57385500000000
H        45.57278600000000   -4.47287100000000   -0.85590500000000
H        47.74672700000000   -4.31070300000000    1.15769100000000
H        49.44309900000000   -2.41699100000000    1.42887400000000
H        49.80225600000000    0.15442100000000   -0.23354300000000
H        49.28255000000000    2.66546800000000   -1.55223000000000
H        47.46779300000001    4.36673300000000   -1.08937600000000
H        45.28381700000000    4.36106800000000    1.08662800000000
C        16.89063400000000    0.01758800000000    0.00011600000000
C        18.10616700000000   -0.00775500000000   -0.01036300000000
C        19.52768400000000   -0.02917900000000   -0.01453900000000
C        20.73624600000000   -0.03138900000000   -0.01443400000000
C        22.15732100000000   -0.01243000000000   -0.01506100000000
C        23.36846300000000    0.01758800000000    0.00011600000000
C        32.46581000000000    0.01758800000000    0.00011600000000
C        33.68134300000000   -0.00775500000000   -0.01036300000000
C        35.10286000000000   -0.02917900000000   -0.01453900000000
C        36.31142100000000   -0.03138900000000   -0.01443400000000
C        37.73249700000000   -0.01243000000000   -0.01506100000000
C        38.94363900000000    0.01758800000000    0.00011600000000
Ni       27.95705300000000    0.02920600000000    0.00494400000000
C        25.67724300000000   -3.23224200000000   -0.90472100000000
C        24.72103300000000   -2.33289100000000   -1.00674800000000
C        25.11340700000000   -1.17058700000000   -0.20423200000000
C        24.47829100000000   -0.01931400000000    0.00803400000000
C        25.16374800000000    1.25528600000000    0.23426400000000
C        24.82845800000000    2.33388600000000    0.93850400000000
C        25.85299900000000    3.35320200000000    0.84792200000000
C        26.80359600000000    2.85627800000000    0.07455800000000
N        26.42660200000000    1.53967300000000   -0.34158500000000
C        28.05073600000000    3.46797900000000   -0.34230800000000
C        29.15228800000000    2.80072200000000   -0.67407900000000
C        30.14583400000000    3.05270700000000   -1.70824900000000
C        31.03971700000000    2.09184700000000   -1.60676500000000
C        30.66001900000000    1.17996400000000   -0.50278800000000
N        29.56510400000000    1.62928200000000    0.00457900000000
C        31.31722600000000   -0.01931400000000    0.00803400000000
C        30.69381500000000   -1.08849600000000    0.46955100000000
C        31.07252700000000   -2.02061100000000    1.54502700000000
C        30.13185900000000   -2.93475700000000    1.63089300000000
C        29.12355700000000   -2.63897900000000    0.63346600000000
N        29.46133200000000   -1.58560100000000   -0.01582900000000
C        27.87116400000000   -3.34598600000000    0.30227200000000
C        26.75728700000000   -2.74928900000000   -0.04506900000000
N        26.37517500000000   -1.46653200000000    0.37261400000000
H        25.67758700000000   -4.22331600000000   -1.39595600000000
H        23.81249900000000   -2.45458600000000   -1.58789600000000
H        23.90360600000000    2.45223700000000    1.51543000000000
H        25.88029400000000    4.34236700000000    1.30457300000000
H        28.13667600000000    4.56535700000000   -0.40433100000000
H        30.17850600000000    3.85892300000000   -2.43507300000000
H        31.93277900000000    1.97887900000000   -2.24053900000000
H        31.98727800000000   -1.94620500000000    2.15519600000000
H        30.15090500000000   -3.74836600000000    2.33916000000000
H        27.90964900000000   -4.44594500000000    0.36130900000000
119
 energy: -219.075233729027 gnorm: 0.419207576662 xtb: 6.4.1 (bd6e46d)
Ni       10.47326922500059    0.02942179209211   -0.00767414504936
C        12.79490349531181   -3.12465488245857    1.30718263997313
C        13.72345463746735   -2.17083661363770    1.26182418047511
C        13.29434606432577   -1.12111988623153    0.34721651766074
C        13.90006603786099    0.02595411482296   -0.00574760619755
C        13.20276340942421    1.21956717877533   -0.36027808173561
C        13.55361716146761    2.21276964747574   -1.23224241621328
C        12.53628770304376    3.20461335237207   -1.24540391118527
C        11.56401345254983    2.80432631609564   -0.37802772960255
N        11.94773144533141    1.57174926505411    0.17819851605171
C        10.32760277443935    3.47189365255786   -0.00702721577798
C         9.20547607652583    2.82233486272123    0.34530932441207
C         8.14350827705040    3.16202182336255    1.29919037423400
C         7.28111366165112    2.15077328897597    1.23945018542950
C         7.73784456558967    1.15406041737522    0.26985312491728
N         8.88190272291278    1.57153634188333   -0.21193701711589
C         7.11997802178344   -0.07970068249430   -0.15192013304394
C         7.79971189764501   -1.20768763801744   -0.41648670599800
C         7.41384240880606   -2.26590443984424   -1.35817844630329
C         8.37740135125409   -3.17937498501109   -1.27905840769182
C         9.36562476477875   -2.73097394670416   -0.30435168138701
N         9.01745529415790   -1.55258291884422    0.17643011684635
C        10.57060619964153   -3.38627735461570    0.14142680256244
C        11.71611142441268   -2.71870364702734    0.41717831170055
N        12.02892112618037   -1.47690711372310   -0.15844451953073
H        12.84834249814493   -4.02101544975760    1.92494752262926
H        14.63071624816759   -2.20411195399871    1.83967619181309
H        14.46747727498917    2.21018764321861   -1.81784404453036
H        12.53035661946303    4.10438664792027   -1.84582397919766
H        10.27537086742906    4.56313578391474   -0.00484594831784
H         8.09446849093445    4.03183102128484    1.93368084991848
H         6.38944012012357    2.11458688104102    1.85243841208888
H         6.03450904831521   -0.08997271776432   -0.26161416856417
H         6.55478935608248   -2.31159824060688   -2.01268638847728
H         8.37657514424595   -4.07957577983665   -1.87655209032556
H        10.54814898647946   -4.47172836925642    0.26036548511130
Ni       45.36236526628645   -0.01540690477379   -0.01186968211710
C        43.04074341769113    2.83998893789210    1.86529530477523
C        42.11218547878049    1.91115238785331    1.64375151747100
C        42.54129693703368    1.04937093113778    0.55028610753051
C        41.93532270793745   -0.01222813028000   -0.00933838129266
C        42.63283030309113   -1.11946640958758   -0.57915491137687
C        42.28201163653215   -1.93367985222629   -1.62019144876449
C        43.29935991853082   -2.90587491359835   -1.81714475568596
C        44.27161457480259   -2.67344717977767   -0.89058153553558
N        43.88786405990358   -1.56541706158503   -0.11536948473137
C        45.50802353196892   -3.39825138737354   -0.64986102105997
C        46.63015457674673   -2.82532453644006   -0.18313459403937
C        47.69212050706291   -3.33607619712843    0.69116416824095
C        48.55451690990700   -2.33129614770521    0.82006367921281
C        48.09778957802828   -1.17201441398220    0.05220174992243
N        46.95373014156115   -1.49287086258183   -0.49867394856820
C        48.71565286874441    0.11857083568853   -0.13336604575481
C        48.03591432980024    1.27606227175014   -0.18408458933295
C        48.42178576533507    2.49060502877619   -0.91311436959740
C        47.45822861081628    3.37354494122231   -0.66590332688266
C        46.47000552788909    2.75210714605450    0.20869881324111
N        46.81817572076669    1.50497378390013    0.46252290844583
C        45.26502674793777    3.31334136008954    0.76830116691814
C        44.11952559893342    2.60619483065766    0.91543701613035
N        43.80673689096079    1.49270406276095    0.11946421136370
H        42.98728946447994    3.60618536763734    2.63862153203199
H        41.20491721317515    1.83665037707606    2.21776350274873
H        41.36815975266049   -1.82250577044780   -2.19519966348665
H        43.30528057789451   -3.67864031341452   -2.57408019106669
H        45.56026392285503   -4.47095697807554   -0.85016482016788
H        47.74116339178536   -4.30849661289709    1.15328236636414
H        49.44619287889991   -2.40946074917026    1.42912551203298
H        49.80112239689900    0.14901816995821   -0.23924867592049
H        49.28084134592348    2.65692859041961   -1.54778456782956
H        47.45905570335870    4.36896293729328   -1.08602762555312
H        45.28748137309217    4.35788568259530    1.08653953126278
C        16.88998934202409    0.01706290480640    0.00033029476204
C        18.11293211277399   -0.00813872479749   -0.01017052350766
C        19.50689473637532   -0.02842865847884   -0.01453147309754
C        20.72935068431525   -0.03036963864873   -0.01449932228489
C        22.08084632866650   -0.01163752270547   -0.01439326825670
C        23.27708486623651    0.03043119623160   -0.00258563430004
C        32.54987492152030    0.02727719531522    0.00148248625466
C        33.74854652850527   -0.00728321740261   -0.00897709744323
C        35.10709966970389   -0.02804556067370   -0.01582652420425
C        36.32946692659119   -0.03062599922375   -0.01478486494100
C        37.72463352286193   -0.01311339366325   -0.01469094891618
C        38.94585699155791    0.01685232981331    0.00041323981912
Ni       27.95129784681322    0.03072457789275    0.00328852425294
C        25.67932454603872   -3.25131157759842   -0.89912248803132
C        24.71888081866275   -2.33138772319914   -1.00048641773188
C        25.16526220186558   -1.19370051266850   -0.20963816733380
C        24.55597495986880   -0.00366320213545    0.00801572621640
C        25.21035852389259    1.26398703146582    0.23351652562260
C        24.82236145537391    2.35879416324631    0.94903492006453
C        25.83078159994519    3.35615757323886    0.85535947775944
C        26.81583764796197    2.83982065282059    0.06985209735975
N        26.45827861625317    1.52936666634392   -0.33124106215682
C        28.03749988196354    3.47112893482116   -0.34365621788957
C        29.15917604267336    2.79289253998180   -0.67533600624024
C        30.15059599237393    3.06136207412807   -1.69779656247256
C        31.05624776095263    2.08097446739398   -1.60597163652387
C        30.64193893644767    1.18415823023343   -0.52128726203610
N        29.52512418803635    1.61572678017343   -0.00965514651797
C        31.26633937732800   -0.00552489935940    0.00062931845203
C        30.65453226764044   -1.10756401541910    0.48204962164100
C        31.08101432574646   -2.01784889595625    1.53668444975598
C        30.12694158278067   -2.95118045252365    1.63099033849939
C        29.11169088872310   -2.64998708683883    0.64268182508570
N        29.43795347238227   -1.55753201270070   -0.00649847588494
C        27.88982038023669   -3.35643287057953    0.31098324864794
C        26.74741488545965   -2.74131177865240   -0.05169262245108
N        26.39708052582913   -1.45693505911350    0.34728220716769
H        25.68137843512821   -4.22077807799832   -1.39305612253569
H        23.81414656082999   -2.44508002017915   -1.58349701471787
H        23.90395590513243    2.45429854536639    1.51577412609767
H        25.87132589069484    4.33789803456000    1.30655102810426
H        28.12288176017971    4.56164989693773   -0.40924659453782
H        30.17279755425696    3.85778819688694   -2.42890042988522
H        31.93226729445527    1.97296696677134   -2.23714491258570
H        31.98173475384413   -1.94108811008461    2.14745631607161
H        30.14508248730836   -3.75376441318752    2.34014069585443
H        27.91430652072891   -4.44529716747203    0.35895496048711
119
 energy: -219.226099968085 gnorm: 0.197629988943 xtb: 6.4.1 (bd6e46d)
Ni       10.48343862188562    0.02798080047303   -0.00501051140597
C        12.79643151050778   -3.13065510347459    1.29273383422040
C        13.73729158864771   -2.16990148227552    1.25460303349610
C        13.28238857884883   -1.11862542899459    0.35995251209761
C        13.86411132811937    0.05277266088081   -0.00635420196086
C        13.18330633894284    1.21386121896159   -0.35939165282448
C        13.56166379996208    2.24177887446922   -1.24138908790030
C        12.56854055158783    3.20306124191584   -1.24791485841165
C        11.55757065637760    2.77494512410503   -0.37393083611848
N        11.91099375861964    1.54078766325567    0.15866007731035
C        10.35047823784781    3.46143617853776   -0.00616134888348
C         9.20675768542668    2.79710512083895    0.35192966704469
C         8.14441604548063    3.16447910647848    1.27309237648121
C         7.25667494502901    2.14789657742061    1.23281738360545
C         7.73732596644652    1.14981489479486    0.29173536430364
N         8.93273131651954    1.53189364239488   -0.16814298612061
C         7.11247214470111   -0.05869367257877   -0.14384573950338
C         7.80839182302894   -1.20227776903087   -0.42848795201914
C         7.40925211320883   -2.26726175081153   -1.33728472848723
C         8.38029732681970   -3.19928593419888   -1.26787600063318
C         9.37822247784153   -2.73358601057276   -0.31736858655683
N         9.04414844027376   -1.51102594157506    0.12761023142960
C        10.55452631603126   -3.38723736730201    0.13327737459861
C        11.71477988974083   -2.69877622680918    0.42456633237110
N        12.00930456983129   -1.46103569904611   -0.11463457050823
H        12.83688994528019   -4.01554499138043    1.91076016790710
H        14.63935217170089   -2.19066844524903    1.83300944072172
H        14.46604065014727    2.22125320454400   -1.81819919840052
H        12.53827283880448    4.09916025308958   -1.84296159306455
H        10.29856877907945    4.55077198445028   -0.00029985286208
H         8.10363717996774    4.02716279137574    1.91843474690081
H         6.38094844227679    2.10263605084399    1.84795035016777
H         6.03606726620279   -0.07978610245362   -0.26455865338506
H         6.55810905054943   -2.30003036234337   -1.99800601056030
H         8.39096272684563   -4.08735954726831   -1.86854697982883
H        10.54472353638775   -4.46541174148914    0.25706664033702
Ni       45.35219301552382   -0.01447918638648   -0.00898516613915
C        43.03923177905600    2.84857196173437    1.85222006100151
C        42.09834438257132    1.91160679953055    1.63646365274689
C        42.55323429422610    1.04460800512886    0.56230977880610
C        41.97098416943732   -0.03828563335506   -0.01497308920742
C        42.65218907770842   -1.11396560970214   -0.57722459125071
C        42.27392911327863   -1.96047667974844   -1.63453197520856
C        43.26710622569274   -2.90387908704453   -1.81930075730310
C        44.27803381489742   -2.64530978929799   -0.88108474091899
N        43.92451672343068   -1.53128688185478   -0.12882623148149
C        45.48512912080724   -3.38812237361512   -0.64704927898715
C        46.62886679193928   -2.80175516239875   -0.17193549425073
C        47.69120743973436   -3.33364485381070    0.66507253354339
C        48.57895472941647   -2.32723560973433    0.81408454457184
C        48.09830890511743   -1.17190306084228    0.07449452822543
N        46.90289874153180   -1.46204359836580   -0.44827770513825
C        48.72315671837857    0.09642836458802   -0.12932659621956
C        48.02722942133739    1.27297129784582   -0.19688563178782
C        48.42637209238285    2.48805797153123   -0.89233954784850
C        47.45533405998383    3.39103578741522   -0.65122566690430
C        46.45740780731983    2.75709006809452    0.19638667238772
N        46.79148025399500    1.47319416163237    0.40683398324579
C        45.28110645745881    3.31579979698688    0.76045905288109
C        44.12086846359360    2.58523733375827    0.91901824423159
N        43.82637176804444    1.46892836380851    0.15961714131387
H        42.99874420548986    3.60345433189217    2.62366140204305
H        41.19627758497126    1.82471223884273    2.20869647506218
H        41.36959647803500   -1.83332221114074   -2.19762595429483
H        43.29736758888948   -3.67403101066395   -2.57028040853307
H        45.53705940268390   -4.45964136302051   -0.84339661122552
H        47.73199299375713   -4.30107628816392    1.13917971088631
H        49.45468343401637   -2.39688137284815    1.42693855751983
H        49.79956318945244    0.13955517590480   -0.24402633980617
H        49.27751911408033    2.64283224038344   -1.53551096019915
H        47.44466702978878    4.37512321186007   -1.07672722452677
H        45.29090123626968    4.35229858865394    1.08210095769181
C        16.88790844856831    0.01637666567933    0.00031574450054
C        18.11470730142443   -0.00827708098392   -0.01009171859624
C        19.47921405996837   -0.02701249851934   -0.01442346702038
C        20.70872271661974   -0.02910623291513   -0.01493339975765
C        22.03285177111547   -0.01252561713104   -0.01207912080131
C        23.25179528857737    0.04544951319412   -0.00545041731622
C        32.58894376399634    0.03428802216257    0.00457388836465
C        33.80516377822803   -0.00937329411402   -0.00637980161504
C        35.12970908800694   -0.02642137100676   -0.01679369429024
C        36.35766045244812   -0.02896810199329   -0.01497626491420
C        37.72336167416913   -0.01433901923820   -0.01451777725076
C        38.94908984751171    0.01486594566981    0.00035048016285
Ni       27.94569521196659    0.03336010442018   -0.00076884761414
C        25.68236260963265   -3.26989567787393   -0.88590952408511
C        24.71932833105554   -2.32949830164698   -0.98715834670192
C        25.19733247584101   -1.20034927924300   -0.21780023841059
C        24.58339450510270    0.02238277489558    0.00576840854022
C        25.25096802926971    1.26796408219936    0.23356094844427
C        24.81793921209697    2.38598649161597    0.95355751291075
C        25.80540061188816    3.35565471510975    0.85483565165166
C        26.83002827081214    2.82021352850734    0.07011226149714
N        26.50258453881788    1.50997401252990   -0.29139062721254
C        28.01866038309073    3.47033092396161   -0.34737836691010
C        29.15727043534098    2.77791919700328   -0.68212706482335
C        30.15850036004801    3.06757681340683   -1.67727816773256
C        31.07294689842427    2.07069650453265   -1.59758647027675
C        30.63067396561875    1.17805257772488   -0.54535894172175
N        29.46783321059658    1.58239426703862   -0.04997857075434
C        31.25384123342990    0.01065843070213   -0.00993679332788
C        30.62899633183793   -1.11338628657516    0.49365468026414
C        31.08423063015173   -2.01757456411139    1.52126188896000
C        30.12413678789105   -2.96978255989212    1.62129488323377
C        29.09508398382992   -2.65565013559901    0.65704763295588
N        29.40236193788490   -1.50845341277047    0.02983426668415
C        27.90835650442554   -3.36424184555507    0.32120133983986
C        26.74835416813855   -2.73436239280043   -0.06484595699150
N        26.42979098645057   -1.43932619510047    0.29159231995673
H        25.68814300563600   -4.22177415784685   -1.38486765837664
H        23.81814324452979   -2.42904018052430   -1.57168156812851
H        23.90388103667364    2.45794645203916    1.51392347444315
H        25.85629272013779    4.33078687224780    1.30650908529074
H        28.09673704391947    4.55475448912063   -0.41438332843604
H        30.16458873283455    3.85673762649774   -2.41252583346377
H        31.93450777450437    1.96255526069407   -2.22928709752874
H        31.97230527994512   -1.93433615330408    2.13170635614658
H        30.13501945605152   -3.76473031581262    2.33683912932644
H        27.91994565822353   -4.44575533596995    0.35936560239957
119
 energy: -219.314436214439 gnorm: 0.098149529577 xtb: 6.4.1 (bd6e46d)
Ni       10.49000248804697    0.02859619017222    0.00021338203352
C        12.79739316241004   -3.13112676939204    1.27819837506133
C        13.74581912513134   -2.16745395331101    1.24723883170605
C        13.26455961274742   -1.11085155934681    0.38211354293852
C        13.82286386868472    0.07101554897941   -0.00477056595787
C        13.16165143023376    1.20483242611989   -0.36743476162582
C        13.56861804502122    2.26418527671980   -1.24420573261277
C        12.59425978857754    3.20556299986463   -1.24169690721932
C        11.54965274995683    2.74825341506648   -0.37335166470334
N        11.87377058204748    1.50918063785875    0.12118806704956
C        10.37168101691627    3.44273577243536   -0.00359615700871
C         9.22286611841330    2.76168051875186    0.37120009858076
C         8.14816794885610    3.15994104075873    1.24765795816925
C         7.23847315507658    2.14899290515162    1.21697742810462
C         7.74207335241824    1.13770772034580    0.31793050673158
N         8.98544371300354    1.48456011198607   -0.10757620395854
C         7.11299239745218   -0.04265005739563   -0.13588894823700
C         7.82607599197551   -1.18734243561285   -0.45217427321000
C         7.40997215599249   -2.26730022203507   -1.31795406894342
C         8.37859171198296   -3.21386859762038   -1.24972708396305
C         9.39296440700019   -2.72697338964748   -0.33680916580984
N         9.07780191157505   -1.46213531249070    0.06432464254139
C        10.54305679436036   -3.38105053054165    0.12615818871972
C        11.70709069855770   -2.67671206866569    0.43932981892508
N        11.98340576810190   -1.43922379063503   -0.06433814613379
H        12.82548493586330   -4.01489690634003    1.88991887243528
H        14.65200304607463   -2.17597324286466    1.81837723916870
H        14.47273379029373    2.23144934553296   -1.81546027776516
H        12.54387964665646    4.10071025943493   -1.83367887578877
H        10.32368506153593    4.52990938855288   -0.00223765307209
H         8.11258769961332    4.02348812047137    1.89179832451312
H         6.36639119666552    2.09214777246837    1.83386828430813
H         6.03916484214221   -0.07122492660874   -0.25836917979830
H         6.55827038656536   -2.28931483957853   -1.97552678679943
H         8.40448380683168   -4.10054093360572   -1.85028035785802
H        10.54389868145536   -4.45687201864954    0.24663029736003
Ni       45.34559757493157   -0.01603300629284   -0.00395398401148
C        43.03826872183505    2.85172966660912    1.83801451129709
C        42.08975287254114    1.91062636905641    1.62873122336446
C        42.57088700025023    1.03286097357031    0.58258871117059
C        42.01174856530408   -0.05647186115148   -0.01686224277774
C        42.67362853296909   -1.10353701629455   -0.58343474822762
C        42.26689023842051   -1.98197153846210   -1.64141764391812
C        43.24135891433591   -2.90745415306984   -1.81361338239417
C        44.28588380849841   -2.61909630088046   -0.87552533113851
N        43.96157632363106   -1.49311183181491   -0.15979643666424
C        45.46386788985784   -3.37015974845562   -0.64100397871104
C        46.61273430964166   -2.77050189222461   -0.14640268536830
C        47.68744447129900   -3.32446079849132    0.64094026475530
C        48.59715136490696   -2.32537439795935    0.79832655956657
C        48.09355461209039   -1.16486322353935    0.10249041856039
N        46.85017483548607   -1.42675454547712   -0.37995597862276
C        48.72263346487108    0.07918746045587   -0.12448602619071
C        48.00954088165947    1.26268632474570   -0.22294309959649
C        48.42564866747922    2.48450511254494   -0.87335716330710
C        47.45704051385400    3.40199487777425   -0.63070573268934
C        46.44266039912664    2.75419244383034    0.17603504460260
N        46.75782601826094    1.43689096119124    0.33555968580781
C        45.29255407163347    3.31100363776758    0.75227889358889
C        44.12854828924902    2.56075738210067    0.92944389508453
N        43.85218091601938    1.43805351545454    0.20503994628650
H        43.01016270682075    3.60669539709056    2.60304229038558
H        41.18358852027796    1.81305741939281    2.19156679014091
H        41.36287684622500   -1.84389643962487   -2.19687276666346
H        43.29175383807409   -3.67725123288149   -2.56139376729601
H        45.51189410536082   -4.43872869670413   -0.84138623847460
H        47.72303435646059   -4.29251274486270    1.11371385069195
H        49.46923445845933   -2.38395758917358    1.41505822157047
H        49.79646266286858    0.12999383077339   -0.23953092550287
H        49.27735449192954    2.62812166340663   -1.51542937305763
H        47.43114266530769    4.38467913192306   -1.05636100463545
H        45.29169787380917    4.34582535477287    1.07019449612443
C        16.87235033328914    0.01626340083896    0.00004206058891
C        18.10559989165761   -0.00772656381504   -0.01093838370141
C        19.44835735591410   -0.02605953500332   -0.01372291181802
C        20.68256574310374   -0.02805126796170   -0.01569919226077
C        22.00353396885149   -0.01218322653487   -0.01050328345118
C        23.22673548050382    0.05731974332085   -0.00391786922629
C        32.62149761878553    0.03624693630849    0.00298475911653
C        33.84255536532449   -0.01313980059965   -0.00492312418507
C        35.16120672770415   -0.02521631887698   -0.01473546057755
C        36.39350060440280   -0.02726497047945   -0.01514764485426
C        37.73630553067738   -0.01629105375203   -0.01511005801468
C        38.96800623575724    0.01215834959650   -0.00036256366203
Ni       27.94456228799785    0.03710593295066   -0.00700654733200
C        25.68729685860096   -3.28088718064031   -0.87219048656094