 Entering Gaussian System
 *********************************************
 Gaussian 98:
 frequency output generated by the xtb code
 *********************************************
                         Standard orientation:
 --------------------------------------------------------------------
  Center     Atomic     Atomic              Coordinates (Angstroms)
  Number     Number      Type              X           Y           Z
 --------------------------------------------------------------------
    1         29             0       28.915856    0.004493   -0.011634
    2          6             0       31.438110   -3.423595    0.033968
    3          6             0       32.392587   -2.462910    0.029243
    4          6             0       31.706357   -1.203057    0.012579
    5          6             0       32.356013    0.040216    0.000323
    6          6             0       31.680967    1.269789   -0.013067
    7          6             0       32.341028    2.543627   -0.021158
    8          6             0       31.366843    3.484355   -0.027555
    9          6             0       30.114708    2.783233   -0.024316
   10          7             0       30.339268    1.440993   -0.015777
   11          6             0       28.879125    3.405444   -0.029261
   12          6             0       27.657735    2.755846   -0.030426
   13          6             0       26.386073    3.426499   -0.038745
   14          6             0       25.437418    2.462401   -0.041617
   15          6             0       26.128354    1.201521   -0.034286
   16          7             0       27.468857    1.411928   -0.027137
   17          6             0       25.499203   -0.031044   -0.035091
   18          6             0       26.153683   -1.250310   -0.024937
   19          6             0       25.489036   -2.525272   -0.023953
   20          6             0       26.457447   -3.469428   -0.008959
   21          6             0       27.714889   -2.772473   -0.001332
   22          7             0       27.498223   -1.432796   -0.011826
   23          6             0       28.949457   -3.396464    0.014980
   24          6             0       30.171791   -2.748649    0.019435
   25          7             0       30.368534   -1.402068    0.007750
   26          1             0       31.560780   -4.489298    0.045461
   27          1             0       33.459506   -2.574220    0.035979
   28          1             0       33.405460    2.676985   -0.020938
   29          1             0       31.467419    4.552436   -0.034145
   30          1             0       28.868342    4.485903   -0.033867
   31          1             0       26.260248    4.492105   -0.042249
   32          1             0       24.369918    2.570852   -0.047840
   33          1             0       24.419030   -0.042230   -0.043316
   34          1             0       24.424045   -2.655915   -0.033393
   35          1             0       26.353751   -4.537414   -0.003606
   36          1             0       28.961152   -4.476884    0.023923
   37         29             0       82.780880    0.038026   -0.009282
   38          6             0       80.265940    3.414229    0.617107
   39          6             0       79.309391    2.471182    0.444982
   40          6             0       79.992978    1.230834    0.215088
   41          6             0       79.340711    0.008185   -0.002600
   42          6             0       80.012875   -1.203437   -0.220392
   43          6             0       79.350063   -2.456087   -0.444043
   44          6             0       80.322201   -3.382971   -0.616707
   45          6             0       81.575877   -2.694559   -0.498812
   46          7             0       81.354235   -1.373675   -0.257768
   47          6             0       82.810107   -3.307945   -0.618662
   48          6             0       84.032900   -2.669933   -0.511405
   49          6             0       85.303087   -3.330798   -0.641392
   50          6             0       86.253844   -2.383202   -0.475376
   51          6             0       85.565693   -1.142239   -0.243544
   52          7             0       84.224742   -1.348035   -0.271446
   53          6             0       86.197555    0.069476   -0.025477
   54          6             0       85.545767    1.269281    0.199720
   55          6             0       86.213219    2.522274    0.427344
   56          6             0       85.246856    3.451808    0.605016
   57          6             0       83.987853    2.767984    0.485579
   58          7             0       84.201601    1.450294    0.241061
   59          6             0       82.754620    3.383359    0.604624
   60          6             0       81.530869    2.748250    0.491126
   61          7             0       81.331291    1.424289    0.247519
   62          1             0       80.145528    4.462410    0.811321
   63          1             0       78.242701    2.582352    0.469054
   64          1             0       78.285361   -2.585861   -0.463059
   65          1             0       80.219332   -4.433779   -0.806879
   66          1             0       82.818534   -4.370947   -0.812271
   67          1             0       85.426611   -4.379159   -0.833779
   68          1             0       87.321075   -2.490816   -0.502876
   69          1             0       87.277757    0.079381   -0.030819
   70          1             0       87.278521    2.649505    0.444621
   71          1             0       85.352879    4.501890    0.798555
   72          1             0       82.745224    4.445816    0.801137
   73          6             0       33.753746    0.053682    0.001599
   74          6             0       34.972120    0.063267    0.001231
   75          6             0       36.314086    0.069370    0.000651
   76          6             0       37.532591    0.071199   -0.002071
   77          6             0       47.223462    0.047209   -0.018326
   78          6             0       48.442262    0.046950   -0.018888
   79          6             0       49.783852    0.045641   -0.020218
   80          6             0       51.002660    0.046503   -0.020676
   81          6             0       60.693710    0.039516   -0.021625
   82          6             0       61.912514    0.035902   -0.019455
   83          6             0       63.254100    0.033301   -0.016437
   84          6             0       64.472904    0.032181   -0.019782
   85          6             0       74.163756   -0.005571   -0.010042
   86          6             0       75.382225   -0.007048   -0.006637
   87          6             0       76.724399   -0.006843   -0.004018
   88          6             0       77.942686   -0.001897   -0.002394
   89         29             0       42.377985    0.059127   -0.013775
   90          6             0       39.881566   -3.367054    0.364356
   91          6             0       38.917192   -2.421474    0.262666
   92          6             0       39.590865   -1.162326    0.125254
   93          6             0       38.929690    0.068625   -0.005058
   94          6             0       39.596709    1.295820   -0.139588
   95          6             0       38.929238    2.558386   -0.275695
   96          6             0       39.898256    3.498377   -0.384934
   97          6             0       41.153897    2.807417   -0.314957
   98          7             0       40.936918    1.472282   -0.165466
   99          6             0       42.386113    3.431063   -0.391544
  100          6             0       43.615262    2.800074   -0.325700
  101          6             0       44.874175    3.483619   -0.407332
  102          6             0       45.838655    2.538489   -0.302029
  103          6             0       45.165162    1.280222   -0.156748
  104          7             0       43.825841    1.464059   -0.174418
  105          6             0       45.826649    0.050207   -0.017723
  106          6             0       45.159286   -1.176596    0.121241
  107          6             0       45.826618   -2.438624    0.262277
  108          6             0       44.857510   -3.379107    0.366887
  109          6             0       43.601964   -2.688879    0.289774
  110          7             0       43.819072   -1.353619    0.141192
  111          6             0       42.369697   -3.313472    0.358246
  112          6             0       41.140595   -2.682899    0.288931
  113          7             0       40.930174   -1.346238    0.143472
  114          1             0       39.769632   -4.427753    0.479766
  115          1             0       37.851425   -2.542670    0.277232
  116          1             0       37.864075    2.685409   -0.284449
  117          1             0       39.791606    4.559430   -0.502003
  118          1             0       42.388804    4.504988   -0.512695
  119          1             0       44.985980    4.543657   -0.528666
  120          1             0       46.904384    2.659583   -0.318705
  121          1             0       46.891753   -2.565196    0.276566
  122          1             0       44.964072   -4.440031    0.485176
  123          1             0       42.367008   -4.387720    0.476505
  124         29             0       55.848197    0.043273   -0.019001
  125          6             0       53.357827   -3.385064    0.378311
  126          6             0       52.391712   -2.442442    0.265463
  127          6             0       53.063042   -1.182938    0.121140
  128          6             0       52.399456    0.045616   -0.020511
  129          6             0       53.064811    1.273271   -0.161540
  130          6             0       52.395295    2.533756   -0.305785
  131          6             0       53.362775    3.475259   -0.416233
  132          6             0       54.619505    2.787188   -0.339460
  133          7             0       54.404709    1.452261   -0.184163
  134          6             0       55.850646    3.412808   -0.417337
  135          6             0       57.080862    2.784333   -0.348492
  136          6             0       58.338586    3.469278   -0.436117
  137          6             0       59.304674    2.526274   -0.326228
  138          6             0       58.633309    1.268010   -0.171538
  139          7             0       57.293687    1.449593   -0.188965
  140          6             0       59.296916    0.040438   -0.022005
  141          6             0       58.631622   -1.186157    0.128363
  142          6             0       59.301107   -2.445372    0.283361
  143          6             0       58.333606   -3.386512    0.396655
  144          6             0       57.076897   -2.699555    0.310368
  145          7             0       57.291723   -1.365411    0.148563
  146          6             0       55.845754   -3.325953    0.381520
  147          6             0       54.615533   -2.698721    0.302302
  148          7             0       54.402668   -1.363651    0.145599
  149          1             0       53.247822   -4.445134    0.501257
  150          1             0       51.326160   -2.565990    0.276415
  151          1             0       51.329904    2.658636   -0.318323
  152          1             0       53.254327    4.535570   -0.538437
  153          1             0       55.851433    4.486169   -0.543473
  154          1             0       58.448631    4.528707   -0.564442
  155          1             0       60.370234    2.648761   -0.345573
  156          1             0       60.366477   -2.569802    0.300327
  157          1             0       58.442042   -4.445931    0.526362
  158          1             0       55.844970   -4.399048    0.509897
  159         29             0       69.318259    0.012999   -0.018059
  160          6             0       66.816610   -3.407729    0.373935
  161          6             0       65.853651   -2.461115    0.268050
  162          6             0       66.529164   -1.203950    0.122490
  163          6             0       65.869721    0.026867   -0.019061
  164          6             0       66.539064    1.252199   -0.161139
  165          6             0       65.873724    2.514584   -0.308319
  166          6             0       66.844306    3.453284   -0.415141
  167          6             0       68.098775    2.761705   -0.332484
  168          7             0       67.879556    1.427319   -0.179256
  169          6             0       69.332014    3.384514   -0.399411
  170          6             0       70.560110    2.752804   -0.322556
  171          6             0       71.820252    3.435348   -0.394574
  172          6             0       72.783140    2.489186   -0.284633
  173          6             0       72.107459    1.231182   -0.146311
  174          7             0       70.768373    1.416491   -0.171397
  175          6             0       72.766414   -0.000454   -0.013006
  176          6             0       72.097472   -1.226986    0.116995
  177          6             0       72.763019   -2.490347    0.255624
  178          6             0       71.792546   -3.429228    0.361085
  179          6             0       70.537937   -2.736848    0.286407
  180          7             0       70.756946   -1.401998    0.137672
  181          6             0       69.304753   -3.358953    0.359989
  182          6             0       68.076622   -2.726163    0.292663
  183          7             0       67.868196   -1.389867    0.140909
  184          1             0       66.703124   -4.467584    0.495467
  185          1             0       64.787715   -2.580538    0.284444
  186          1             0       64.808778    2.642501   -0.325073
  187          1             0       66.739398    4.513871   -0.537924
  188          1             0       69.336415    4.458269   -0.522019
  189          1             0       71.933849    4.495472   -0.513590
  190          1             0       73.849112    2.609162   -0.295266
  191          1             0       73.828007   -2.618512    0.269245
  192          1             0       71.897570   -4.490366    0.478853
  193          1             0       69.300402   -4.432882    0.481011
 --------------------------------------------------------------------
     1 basis functions        1 primitive gaussians
     1 alpha electrons        1 beta electrons

 Harmonic frequencies (cm**-1), IR intensities (km*mol⁻¹),
 Raman scattering activities (A**4/amu), Raman depolarization ratios,
 reduced masses (AMU), force constants (mDyne/A) and normal coordinates:
                      1                      2                      3
                        a                      a                      a 
 Frequencies --    -3.4391                -1.8174                 1.2087
 Red. masses --    11.7108                16.8017                19.3677
 Frc consts  --     0.0000                 0.0000                 0.0000
 IR Inten    --   223.1225               332.8136                 0.4257
 Raman Activ --     0.0000                 0.0000                 0.0000
 Depolar     --     0.0000                 0.0000                 0.0000
 Atom AN      X      Y      Z        X      Y      Z        X      Y      Z
   1  29    -0.00   0.05  -0.01    -0.00   0.17  -0.00    -0.00   0.03   0.20
   2   6    -0.01   0.01   0.09    -0.03   0.05  -0.01    -0.00   0.01   0.05
   3   6    -0.01   0.01   0.06    -0.03   0.04  -0.00    -0.00   0.01   0.05
   4   6    -0.00   0.01   0.03    -0.01   0.05  -0.00    -0.00   0.01   0.06
   5   6    -0.00   0.01  -0.00    -0.00   0.04   0.00    -0.00   0.01   0.05
   6   6     0.00   0.01  -0.04     0.01   0.05   0.00     0.00   0.01   0.07
   7   6     0.01   0.01  -0.07     0.02   0.04   0.01     0.00   0.01   0.06
   8   6     0.01   0.01  -0.09     0.03   0.05   0.01     0.00   0.01   0.08
   9   6     0.01   0.02  -0.08     0.03   0.06   0.01     0.00   0.01   0.09
  10   7     0.00   0.02  -0.04     0.01   0.06   0.00     0.00   0.01   0.09
  11   6     0.01   0.02  -0.09     0.03   0.07   0.01     0.00   0.01   0.10
  12   6     0.01   0.03  -0.08     0.03   0.09   0.01     0.00   0.01   0.11
  13   6     0.01   0.03  -0.10     0.03   0.10   0.01     0.00   0.02   0.13
  14   6     0.01   0.03  -0.07     0.02   0.11   0.00     0.00   0.02   0.13
  15   6     0.00   0.03  -0.04     0.01   0.10  -0.00     0.00   0.02   0.12
  16   7     0.00   0.03  -0.05     0.01   0.10   0.00     0.00   0.02   0.12
  17   6    -0.00   0.03  -0.01    -0.00   0.11  -0.00    -0.00   0.02   0.12
  18   6    -0.00   0.03   0.02    -0.01   0.10  -0.01    -0.00   0.02   0.11
  19   6    -0.01   0.03   0.06    -0.02   0.11  -0.01    -0.00   0.02   0.11
  20   6    -0.01   0.03   0.08    -0.03   0.10  -0.01    -0.00   0.02   0.10
  21   6    -0.01   0.03   0.07    -0.03   0.09  -0.01    -0.00   0.01   0.09
  22   7    -0.01   0.03   0.03    -0.02   0.10  -0.01    -0.00   0.02   0.11
  23   6    -0.01   0.02   0.08    -0.03   0.07  -0.01    -0.00   0.01   0.08
  24   6    -0.01   0.02   0.07    -0.03   0.06  -0.01    -0.00   0.01   0.07
  25   7    -0.01   0.02   0.04    -0.02   0.07  -0.00    -0.00   0.01   0.08
  26   1    -0.00   0.00   0.03    -0.01   0.01  -0.00    -0.00   0.00   0.01
  27   1    -0.00   0.00   0.02    -0.01   0.01  -0.00    -0.00   0.00   0.01
  28   1     0.00   0.00  -0.02     0.01   0.01   0.00     0.00   0.00   0.02
  29   1     0.00   0.00  -0.04     0.01   0.01   0.00     0.00   0.00   0.02
  30   1     0.00   0.01  -0.04     0.01   0.02   0.00     0.00   0.00   0.03
  31   1     0.00   0.01  -0.04     0.01   0.03   0.00     0.00   0.00   0.04
  32   1     0.00   0.01  -0.02     0.01   0.03   0.00     0.00   0.01   0.04
  33   1    -0.00   0.01  -0.00    -0.00   0.03  -0.00    -0.00   0.01   0.04
  34   1    -0.00   0.01   0.02    -0.01   0.03  -0.00    -0.00   0.01   0.04
  35   1    -0.00   0.01   0.03    -0.01   0.03  -0.00    -0.00   0.00   0.03
  36   1    -0.00   0.01   0.03    -0.01   0.02  -0.00    -0.00   0.00   0.02
  37  29     0.00   0.05  -0.00     0.00   0.18  -0.00     0.00   0.03   0.20
  38   6    -0.01  -0.01   0.14    -0.04   0.07  -0.12    -0.01   0.00   0.11
  39   6    -0.01  -0.01   0.10    -0.03   0.05  -0.09    -0.01   0.00   0.08
  40   6    -0.00   0.00   0.05    -0.01   0.05  -0.04    -0.00   0.01   0.08
  41   6     0.00   0.01  -0.00     0.00   0.04   0.00     0.00   0.01   0.05
  42   6     0.00   0.02  -0.05     0.01   0.04   0.04     0.00   0.01   0.05
  43   6     0.01   0.03  -0.11     0.03   0.02   0.09     0.01   0.01   0.02
  44   6     0.01   0.04  -0.15     0.04   0.03   0.12     0.01   0.02   0.02
  45   6     0.01   0.04  -0.12     0.03   0.04   0.10     0.01   0.02   0.04
  46   7     0.01   0.03  -0.07     0.02   0.06   0.06     0.00   0.01   0.06
  47   6     0.01   0.05  -0.15     0.04   0.05   0.12     0.01   0.02   0.05
  48   6     0.01   0.05  -0.12     0.03   0.07   0.10     0.01   0.02   0.07
  49   6     0.01   0.06  -0.15     0.04   0.08   0.13     0.01   0.02   0.07
  50   6     0.01   0.05  -0.11     0.03   0.10   0.09     0.01   0.02   0.09
  51   6     0.00   0.04  -0.05     0.01   0.10   0.04     0.00   0.02   0.10
  52   7     0.01   0.04  -0.07     0.02   0.09   0.06     0.01   0.02   0.09
  53   6     0.00   0.03  -0.00     0.00   0.11  -0.00     0.00   0.02   0.12
  54   6    -0.00   0.02   0.05    -0.01   0.12  -0.05    -0.00   0.01   0.13
  55   6    -0.01   0.01   0.10    -0.03   0.13  -0.09    -0.01   0.01   0.16
  56   6    -0.01   0.00   0.14    -0.04   0.13  -0.13    -0.01   0.01   0.16
  57   6    -0.01   0.00   0.11    -0.03   0.11  -0.10    -0.01   0.01   0.14
  58   7    -0.00   0.02   0.06    -0.02   0.11  -0.06    -0.00   0.01   0.13
  59   6    -0.01  -0.00   0.14    -0.04   0.10  -0.12    -0.01   0.00   0.13
  60   6    -0.01  -0.00   0.11    -0.03   0.08  -0.10    -0.01   0.00   0.11
  61   7    -0.00   0.01   0.06    -0.02   0.08  -0.06    -0.00   0.01   0.10
  62   1    -0.00  -0.01   0.05    -0.01   0.02  -0.05    -0.00  -0.00   0.03
  63   1    -0.00  -0.00   0.03    -0.01   0.01  -0.03    -0.00   0.00   0.02
  64   1     0.00   0.01  -0.03     0.01   0.00   0.03     0.00   0.00   0.00
  65   1     0.00   0.01  -0.06     0.01   0.01   0.05     0.00   0.01   0.00
  66   1     0.00   0.02  -0.06     0.01   0.01   0.05     0.00   0.01   0.01
  67   1     0.00   0.02  -0.06     0.01   0.02   0.05     0.00   0.01   0.02
  68   1     0.00   0.02  -0.03     0.01   0.03   0.03     0.00   0.01   0.03
  69   1     0.00   0.01  -0.00     0.00   0.04  -0.00     0.00   0.01   0.04
  70   1    -0.00   0.01   0.03    -0.01   0.04  -0.03    -0.00   0.00   0.05
  71   1    -0.00  -0.00   0.05    -0.01   0.04  -0.05    -0.00   0.00   0.05
  72   1    -0.00  -0.00   0.05    -0.01   0.03  -0.05    -0.00   0.00   0.04
  73   6    -0.00   0.01  -0.00    -0.00   0.03   0.00     0.00   0.01   0.04
  74   6    -0.00   0.00  -0.00    -0.00   0.02   0.00     0.00   0.00   0.03
  75   6    -0.00  -0.00   0.00    -0.00   0.01   0.00     0.00   0.00   0.02
  76   6    -0.00  -0.00   0.00    -0.00  -0.00   0.00    -0.00   0.00   0.00
  77   6    -0.00  -0.02   0.01    -0.00  -0.06   0.00    -0.00  -0.01  -0.07
  78   6    -0.00  -0.02   0.01    -0.00  -0.06   0.00    -0.00  -0.01  -0.07
  79   6    -0.00  -0.02   0.01    -0.00  -0.07   0.00    -0.00  -0.01  -0.08
  80   6    -0.00  -0.02   0.00    -0.00  -0.07   0.00    -0.00  -0.01  -0.08
  81   6     0.00  -0.02   0.00    -0.00  -0.07  -0.00     0.00  -0.01  -0.08
  82   6     0.00  -0.02   0.00    -0.00  -0.07  -0.00     0.00  -0.01  -0.08
  83   6     0.00  -0.02   0.00    -0.00  -0.07  -0.00     0.00  -0.01  -0.07
  84   6     0.00  -0.02   0.00    -0.00  -0.06  -0.00     0.00  -0.01  -0.07
  85   6     0.00  -0.00  -0.00     0.00  -0.01   0.00     0.00   0.00   0.00
  86   6     0.00  -0.00  -0.00     0.00   0.00   0.00     0.00   0.00   0.01
  87   6     0.00   0.00  -0.00     0.00   0.01   0.00     0.00   0.00   0.03
  88   6     0.00   0.01  -0.00     0.00   0.02   0.00     0.00   0.01   0.04
  89  29    -0.00  -0.02   0.01    -0.00  -0.07   0.00    -0.00  -0.01  -0.08
  90   6    -0.00   0.01   0.16    -0.02  -0.02  -0.00    -0.00  -0.00  -0.02
  91   6    -0.00   0.01   0.12    -0.01  -0.01  -0.00    -0.00  -0.00  -0.01
  92   6    -0.00  -0.00   0.06    -0.01  -0.01   0.00    -0.00  -0.00  -0.02
  93   6    -0.00  -0.01   0.00    -0.00  -0.01   0.00    -0.00  -0.00  -0.01
  94   6     0.00  -0.01  -0.05     0.01  -0.02   0.00     0.00  -0.00  -0.01
  95   6     0.00  -0.02  -0.11     0.01  -0.01   0.00     0.00  -0.00  -0.01
  96   6     0.01  -0.03  -0.15     0.02  -0.02   0.00     0.00  -0.00  -0.01
  97   6     0.00  -0.02  -0.12     0.02  -0.02   0.00     0.00  -0.00  -0.02
  98   7     0.00  -0.02  -0.07     0.01  -0.02   0.00     0.00  -0.00  -0.03
  99   6     0.00  -0.03  -0.15     0.02  -0.03   0.00     0.00  -0.00  -0.03
 100   6     0.00  -0.03  -0.12     0.02  -0.04   0.00     0.00  -0.01  -0.04
 101   6     0.00  -0.03  -0.15     0.02  -0.04   0.00     0.00  -0.01  -0.05
 102   6     0.00  -0.03  -0.11     0.01  -0.05   0.00     0.00  -0.01  -0.06
 103   6     0.00  -0.02  -0.05     0.01  -0.05   0.00     0.00  -0.01  -0.05
 104   7     0.00  -0.02  -0.06     0.01  -0.04   0.00     0.00  -0.01  -0.05
 105   6    -0.00  -0.02   0.01    -0.00  -0.05   0.00    -0.00  -0.01  -0.06
 106   6    -0.00  -0.01   0.06    -0.01  -0.05  -0.00    -0.00  -0.01  -0.06
 107   6    -0.00  -0.00   0.12    -0.01  -0.05  -0.00    -0.00  -0.01  -0.06
 108   6    -0.01   0.00   0.16    -0.02  -0.04  -0.00    -0.00  -0.01  -0.06
 109   6    -0.00   0.00   0.13    -0.02  -0.04  -0.00    -0.00  -0.01  -0.05
 110   7    -0.00  -0.00   0.08    -0.01  -0.04  -0.00    -0.00  -0.01  -0.05
 111   6    -0.00   0.01   0.16    -0.02  -0.03  -0.00    -0.00  -0.01  -0.04
 112   6    -0.00   0.01   0.13    -0.02  -0.02  -0.00    -0.00  -0.00  -0.03
 113   7    -0.00  -0.00   0.07    -0.01  -0.02   0.00    -0.00  -0.00  -0.03
 114   1    -0.00   0.00   0.06    -0.01  -0.00  -0.00    -0.00  -0.00  -0.01
 115   1    -0.00   0.00   0.04    -0.00  -0.00  -0.00    -0.00  -0.00  -0.00
 116   1     0.00  -0.01  -0.03     0.00  -0.00   0.00     0.00   0.00   0.00
 117   1     0.00  -0.01  -0.06     0.01  -0.00   0.00     0.00  -0.00  -0.00
 118   1     0.00  -0.01  -0.06     0.01  -0.01   0.00     0.00  -0.00  -0.01
 119   1     0.00  -0.01  -0.06     0.01  -0.01   0.00     0.00  -0.00  -0.02
 120   1     0.00  -0.01  -0.03     0.00  -0.02   0.00     0.00  -0.00  -0.02
 121   1    -0.00  -0.00   0.04    -0.00  -0.02  -0.00    -0.00  -0.00  -0.02
 122   1    -0.00   0.00   0.06    -0.01  -0.01  -0.00    -0.00  -0.00  -0.02
 123   1    -0.00   0.00   0.06    -0.01  -0.01  -0.00    -0.00  -0.00  -0.01
 124  29    -0.00  -0.04   0.01    -0.00  -0.16  -0.00    -0.00  -0.03  -0.21
 125   6     0.00  -0.02   0.03    -0.00  -0.08  -0.07    -0.00  -0.01  -0.07
 126   6     0.00  -0.02   0.03    -0.00  -0.08  -0.05    -0.00  -0.01  -0.07
 127   6     0.00  -0.02   0.02    -0.00  -0.07  -0.02    -0.00  -0.01  -0.08
 128   6    -0.00  -0.02   0.00    -0.00  -0.07   0.00    -0.00  -0.01  -0.09
 129   6    -0.00  -0.02  -0.01    -0.00  -0.07   0.02    -0.00  -0.01  -0.10
 130   6    -0.00  -0.02  -0.02     0.00  -0.06   0.05    -0.00  -0.01  -0.10
 131   6    -0.00  -0.02  -0.03     0.00  -0.06   0.06     0.00  -0.02  -0.11
 132   6    -0.00  -0.02  -0.02     0.00  -0.06   0.05     0.00  -0.02  -0.11
 133   7    -0.00  -0.02  -0.01    -0.00  -0.07   0.03    -0.00  -0.02  -0.11
 134   6    -0.00  -0.02  -0.02     0.00  -0.06   0.06     0.00  -0.02  -0.11
 135   6    -0.00  -0.02  -0.02     0.00  -0.06   0.05     0.00  -0.02  -0.11
 136   6    -0.00  -0.02  -0.02     0.00  -0.06   0.06     0.00  -0.02  -0.11
 137   6    -0.00  -0.02  -0.02     0.00  -0.07   0.05     0.00  -0.02  -0.10
 138   6    -0.00  -0.02  -0.01     0.00  -0.07   0.02     0.00  -0.01  -0.10
 139   7    -0.00  -0.02  -0.01     0.00  -0.07   0.03     0.00  -0.02  -0.11
 140   6     0.00  -0.02   0.00    -0.00  -0.07  -0.00     0.00  -0.01  -0.09
 141   6     0.00  -0.02   0.01    -0.00  -0.07  -0.02    -0.00  -0.01  -0.08
 142   6     0.00  -0.02   0.02    -0.00  -0.08  -0.05    -0.00  -0.01  -0.07
 143   6     0.00  -0.02   0.03    -0.00  -0.08  -0.07    -0.00  -0.01  -0.07
 144   6     0.00  -0.02   0.02    -0.00  -0.08  -0.05    -0.00  -0.01  -0.08
 145   7     0.00  -0.02   0.01    -0.00  -0.08  -0.03    -0.00  -0.01  -0.09
 146   6     0.00  -0.02   0.03    -0.00  -0.08  -0.07    -0.00  -0.01  -0.07
 147   6     0.00  -0.02   0.03    -0.00  -0.08  -0.05    -0.00  -0.01  -0.08
 148   7     0.00  -0.02   0.02    -0.00  -0.08  -0.03    -0.00  -0.01  -0.09
 149   1     0.00  -0.00   0.01    -0.00  -0.02  -0.02    -0.00  -0.00  -0.02
 150   1     0.00  -0.00   0.01    -0.00  -0.02  -0.01    -0.00  -0.00  -0.02
 151   1    -0.00  -0.01  -0.01     0.00  -0.02   0.01    -0.00  -0.00  -0.03
 152   1    -0.00  -0.01  -0.01     0.00  -0.02   0.02     0.00  -0.00  -0.03
 153   1    -0.00  -0.01  -0.01     0.00  -0.02   0.02     0.00  -0.00  -0.04
 154   1    -0.00  -0.01  -0.01     0.00  -0.02   0.02     0.00  -0.00  -0.04
 155   1    -0.00  -0.01  -0.00     0.00  -0.02   0.01     0.00  -0.00  -0.03
 156   1     0.00  -0.00   0.01    -0.00  -0.02  -0.01    -0.00  -0.00  -0.02
 157   1     0.00  -0.00   0.01    -0.00  -0.02  -0.03    -0.00  -0.00  -0.02
 158   1     0.00  -0.00   0.01    -0.00  -0.02  -0.02    -0.00  -0.00  -0.02
 159  29     0.00  -0.02  -0.00     0.00  -0.08  -0.00     0.00  -0.01  -0.09
 160   6     0.00  -0.03  -0.13     0.02  -0.06  -0.05     0.00  -0.00  -0.02
 161   6     0.00  -0.03  -0.09     0.01  -0.06  -0.04     0.00  -0.01  -0.03
 162   6     0.00  -0.02  -0.05     0.01  -0.05  -0.02     0.00  -0.01  -0.04
 163   6     0.00  -0.01  -0.00     0.00  -0.05  -0.00     0.00  -0.01  -0.06
 164   6    -0.00  -0.01   0.04    -0.01  -0.05   0.02    -0.00  -0.01  -0.07
 165   6    -0.00  -0.00   0.09    -0.01  -0.05   0.04    -0.00  -0.01  -0.09
 166   6    -0.01   0.00   0.13    -0.02  -0.04   0.05    -0.00  -0.01  -0.10
 167   6    -0.00   0.00   0.10    -0.01  -0.04   0.04    -0.00  -0.01  -0.08
 168   7    -0.00  -0.01   0.06    -0.01  -0.04   0.02    -0.00  -0.01  -0.07
 169   6    -0.00   0.00   0.13    -0.02  -0.03   0.05    -0.00  -0.01  -0.08
 170   6    -0.00   0.00   0.10    -0.01  -0.02   0.04    -0.00  -0.01  -0.06
 171   6    -0.00   0.01   0.13    -0.02  -0.02   0.05    -0.00  -0.01  -0.06
 172   6    -0.00   0.01   0.09    -0.01  -0.01   0.03    -0.00  -0.00  -0.04
 173   6    -0.00  -0.00   0.05    -0.01  -0.02   0.02    -0.00  -0.00  -0.03
 174   7    -0.00  -0.00   0.06    -0.01  -0.03   0.02    -0.00  -0.01  -0.05
 175   6     0.00  -0.01  -0.00     0.00  -0.02   0.00     0.00  -0.00  -0.01
 176   6     0.00  -0.01  -0.05     0.01  -0.02  -0.02     0.00  -0.00  -0.00
 177   6     0.00  -0.02  -0.10     0.01  -0.02  -0.03     0.00   0.00   0.02
 178   6     0.01  -0.02  -0.13     0.02  -0.03  -0.05     0.00   0.00   0.02
 179   6     0.00  -0.02  -0.11     0.02  -0.03  -0.04     0.00  -0.00   0.00
 180   7     0.00  -0.02  -0.06     0.01  -0.03  -0.02     0.00  -0.00  -0.01
 181   6     0.00  -0.02  -0.13     0.02  -0.04  -0.05     0.00  -0.00  -0.00
 182   6     0.00  -0.02  -0.10     0.02  -0.05  -0.04     0.00  -0.00  -0.02
 183   7     0.00  -0.02  -0.06     0.01  -0.05  -0.02     0.00  -0.01  -0.03
 184   1     0.00  -0.01  -0.05     0.01  -0.02  -0.02     0.00  -0.00  -0.00
 185   1     0.00  -0.01  -0.03     0.00  -0.02  -0.01     0.00  -0.00  -0.01
 186   1    -0.00  -0.00   0.03    -0.00  -0.02   0.01    -0.00  -0.00  -0.03
 187   1    -0.00   0.00   0.05    -0.01  -0.01   0.02    -0.00  -0.00  -0.03
 188   1    -0.00   0.00   0.05    -0.01  -0.01   0.02    -0.00  -0.00  -0.03
 189   1    -0.00   0.00   0.05    -0.01  -0.00   0.02    -0.00  -0.00  -0.02
 190   1    -0.00   0.00   0.03    -0.00  -0.00   0.01    -0.00  -0.00  -0.01
 191   1     0.00  -0.00  -0.03     0.00  -0.00  -0.01     0.00   0.00   0.01
 192   1     0.00  -0.01  -0.05     0.01  -0.01  -0.02     0.00   0.00   0.01
 193   1     0.00  -0.01  -0.05     0.01  -0.01  -0.02     0.00   0.00   0.00
                      4                      5                      6
                        a                      a                      a 
 Frequencies --     1.5935                 2.6579                 3.0462
 Red. masses --    13.4739                18.9167                11.6926
 Frc consts  --     0.0000                 0.0000                 0.0000
 IR Inten    --     1.3116                 0.7416                 8.2062
 Raman Activ --     0.0000                 0.0000                 0.0000
 Depolar     --     0.0000                 0.0000                 0.0000
 Atom AN      X      Y      Z        X      Y      Z        X      Y      Z
   1  29     0.00  -0.09   0.06     0.00   0.03   0.12    -0.00  -0.01   0.03
   2   6     0.02  -0.03   0.10    -0.01   0.01   0.05    -0.00  -0.01  -0.20
   3   6     0.01  -0.02   0.07    -0.01   0.00   0.03    -0.00  -0.01  -0.14
   4   6     0.01  -0.03   0.05    -0.00   0.00   0.02    -0.00  -0.01  -0.07
   5   6     0.00  -0.02   0.01     0.00   0.00  -0.00    -0.00  -0.01   0.00
   6   6    -0.01  -0.03  -0.01     0.00   0.00  -0.00     0.00  -0.01   0.08
   7   6    -0.01  -0.02  -0.05     0.01   0.00  -0.03     0.00  -0.01   0.15
   8   6    -0.02  -0.03  -0.07     0.01   0.01  -0.03     0.00  -0.01   0.21
   9   6    -0.01  -0.03  -0.05     0.01   0.01   0.00     0.00  -0.00   0.18
  10   7    -0.01  -0.04  -0.01     0.00   0.01   0.01     0.00  -0.01   0.10
  11   6    -0.02  -0.04  -0.06     0.01   0.01   0.01     0.00  -0.00   0.22
  12   6    -0.01  -0.05  -0.04     0.01   0.01   0.04     0.00  -0.00   0.18
  13   6    -0.02  -0.05  -0.05     0.01   0.02   0.05     0.00   0.00   0.23
  14   6    -0.01  -0.06  -0.02     0.01   0.02   0.08     0.00   0.00   0.17
  15   6    -0.01  -0.05   0.00     0.00   0.02   0.08     0.00   0.00   0.09
  16   7    -0.01  -0.05  -0.01     0.00   0.02   0.06     0.00  -0.00   0.11
  17   6     0.00  -0.06   0.04    -0.00   0.02   0.11    -0.00   0.00   0.02
  18   6     0.01  -0.05   0.06    -0.00   0.02   0.11    -0.00  -0.00  -0.06
  19   6     0.01  -0.06   0.10    -0.01   0.02   0.14    -0.00  -0.00  -0.13
  20   6     0.02  -0.05   0.12    -0.01   0.02   0.13    -0.00  -0.00  -0.19
  21   6     0.01  -0.04   0.10    -0.01   0.01   0.10    -0.00  -0.00  -0.15
  22   7     0.01  -0.05   0.07    -0.00   0.02   0.10    -0.00  -0.00  -0.08
  23   6     0.02  -0.04   0.11    -0.01   0.01   0.09    -0.00  -0.01  -0.19
  24   6     0.01  -0.03   0.09    -0.01   0.01   0.06    -0.00  -0.01  -0.15
  25   7     0.01  -0.03   0.06    -0.00   0.01   0.05    -0.00  -0.01  -0.08
  26   1     0.01  -0.01   0.04    -0.00   0.00   0.02    -0.00  -0.00  -0.08
  27   1     0.00  -0.00   0.02    -0.00   0.00   0.00    -0.00  -0.00  -0.04
  28   1    -0.00  -0.01  -0.02     0.00   0.00  -0.01     0.00  -0.00   0.04
  29   1    -0.01  -0.01  -0.03     0.00   0.00  -0.01     0.00  -0.00   0.08
  30   1    -0.01  -0.01  -0.02     0.00   0.00  -0.00     0.00  -0.00   0.08
  31   1    -0.01  -0.02  -0.02     0.00   0.01   0.01     0.00   0.00   0.09
  32   1    -0.00  -0.02  -0.01     0.00   0.01   0.03     0.00   0.00   0.05
  33   1     0.00  -0.02   0.01    -0.00   0.01   0.04    -0.00   0.00   0.01
  34   1     0.00  -0.02   0.03    -0.00   0.01   0.05    -0.00   0.00  -0.04
  35   1     0.01  -0.01   0.04    -0.00   0.01   0.04    -0.00  -0.00  -0.07
  36   1     0.01  -0.01   0.04    -0.00   0.00   0.03    -0.00  -0.00  -0.07
  37  29    -0.00  -0.10   0.05    -0.00  -0.00  -0.12     0.00  -0.03  -0.02
  38   6     0.02  -0.01  -0.11     0.01  -0.00   0.01     0.01   0.00  -0.06
  39   6     0.01  -0.01  -0.07     0.01   0.00   0.02     0.01   0.00  -0.04
  40   6     0.01  -0.02  -0.03     0.01   0.00  -0.00     0.00  -0.00  -0.02
  41   6    -0.00  -0.02   0.01     0.00   0.00   0.00     0.00  -0.01   0.00
  42   6    -0.01  -0.03   0.06    -0.00   0.00  -0.02    -0.00  -0.01   0.02
  43   6    -0.01  -0.04   0.10    -0.01   0.01  -0.01    -0.01  -0.01   0.05
  44   6    -0.02  -0.05   0.14    -0.01   0.00  -0.03    -0.01  -0.02   0.06
  45   6    -0.01  -0.05   0.12    -0.01   0.00  -0.05    -0.01  -0.02   0.05
  46   7    -0.01  -0.05   0.08    -0.01   0.00  -0.04    -0.00  -0.02   0.02
  47   6    -0.02  -0.07   0.15    -0.01   0.00  -0.07    -0.01  -0.03   0.05
  48   6    -0.01  -0.07   0.13    -0.01   0.00  -0.09    -0.01  -0.03   0.04
  49   6    -0.02  -0.08   0.15    -0.01  -0.00  -0.11    -0.01  -0.03   0.05
  50   6    -0.01  -0.08   0.12    -0.01  -0.00  -0.13    -0.01  -0.03   0.03
  51   6    -0.01  -0.07   0.07    -0.01  -0.00  -0.11    -0.00  -0.03   0.01
  52   7    -0.01  -0.07   0.08    -0.01  -0.00  -0.09    -0.00  -0.02   0.02
  53   6    -0.00  -0.06   0.03    -0.00  -0.00  -0.11     0.00  -0.02  -0.02
  54   6     0.01  -0.05  -0.02     0.00  -0.01  -0.09     0.00  -0.02  -0.04
  55   6     0.01  -0.05  -0.06     0.01  -0.01  -0.10     0.01  -0.02  -0.06
  56   6     0.02  -0.03  -0.10     0.01  -0.01  -0.08     0.01  -0.01  -0.08
  57   6     0.01  -0.03  -0.08     0.01  -0.01  -0.06     0.01  -0.01  -0.06
  58   7     0.01  -0.05  -0.03     0.01  -0.00  -0.08     0.01  -0.01  -0.04
  59   6     0.02  -0.02  -0.10     0.01  -0.00  -0.03     0.01  -0.00  -0.07
  60   6     0.01  -0.02  -0.08     0.01  -0.00  -0.02     0.01  -0.00  -0.05
  61   7     0.01  -0.03  -0.03     0.01  -0.00  -0.02     0.01  -0.01  -0.03
  62   1     0.01   0.00  -0.04     0.01  -0.00   0.00     0.00   0.00  -0.02
  63   1     0.00   0.00  -0.02     0.00   0.00   0.01     0.00   0.00  -0.01
  64   1    -0.00  -0.01   0.03    -0.00   0.00   0.00    -0.00  -0.00   0.01
  65   1    -0.01  -0.02   0.05    -0.01   0.00  -0.01    -0.00  -0.01   0.02
  66   1    -0.01  -0.02   0.05    -0.01   0.00  -0.02    -0.00  -0.01   0.02
  67   1    -0.01  -0.03   0.06    -0.01   0.00  -0.04    -0.00  -0.01   0.02
  68   1    -0.00  -0.03   0.04    -0.00  -0.00  -0.04    -0.00  -0.01   0.01
  69   1    -0.00  -0.02   0.01    -0.00  -0.00  -0.04     0.00  -0.01  -0.01
  70   1     0.00  -0.02  -0.02     0.00  -0.00  -0.03     0.00  -0.01  -0.02
  71   1     0.01  -0.01  -0.04     0.01  -0.00  -0.02     0.00  -0.00  -0.03
  72   1     0.01  -0.00  -0.04     0.01  -0.00  -0.01     0.00   0.00  -0.02
  73   6     0.00  -0.02   0.01     0.00  -0.00  -0.02    -0.00  -0.01   0.00
  74   6     0.00  -0.01   0.01     0.00  -0.00  -0.04    -0.00  -0.01  -0.00
  75   6     0.00  -0.01   0.00     0.00  -0.01  -0.05    -0.00  -0.01  -0.01
  76   6    -0.00  -0.00  -0.00     0.00  -0.01  -0.07    -0.00  -0.01  -0.01
  77   6     0.00   0.03  -0.02     0.00  -0.02  -0.09    -0.00  -0.00  -0.02
  78   6     0.00   0.03  -0.02     0.00  -0.02  -0.08    -0.00   0.00  -0.02
  79   6     0.00   0.04  -0.02     0.00  -0.01  -0.06    -0.00   0.00  -0.02
  80   6     0.00   0.04  -0.02     0.00  -0.01  -0.05    -0.00   0.01  -0.02
  81   6     0.00   0.04  -0.02    -0.00   0.00   0.05     0.00   0.02   0.01
  82   6     0.00   0.04  -0.02    -0.00   0.00   0.07     0.00   0.02   0.01
  83   6     0.00   0.04  -0.02    -0.00   0.01   0.08     0.00   0.02   0.01
  84   6     0.00   0.04  -0.02    -0.00   0.01   0.09     0.00   0.02   0.01
  85   6    -0.00   0.00   0.00    -0.00   0.01   0.07     0.00   0.01   0.02
  86   6    -0.00  -0.00   0.01    -0.00   0.01   0.05     0.00   0.00   0.01
  87   6    -0.00  -0.01   0.01     0.00   0.01   0.04     0.00   0.00   0.01
  88   6    -0.00  -0.01   0.01     0.00   0.01   0.02     0.00  -0.00   0.01
  89  29     0.00   0.03  -0.03     0.00  -0.03  -0.23    -0.00  -0.01  -0.04
  90   6     0.01   0.01   0.03    -0.00  -0.02  -0.12     0.00   0.01   0.11
  91   6     0.01   0.01   0.03    -0.00  -0.01  -0.11     0.00   0.00   0.07
  92   6     0.00   0.01   0.01    -0.00  -0.01  -0.10     0.00  -0.00   0.03
  93   6     0.00   0.00  -0.00     0.00  -0.01  -0.08    -0.00  -0.01  -0.01
  94   6    -0.00   0.00  -0.02     0.00  -0.01  -0.08    -0.00  -0.01  -0.06
  95   6    -0.01  -0.00  -0.03     0.00  -0.01  -0.07    -0.00  -0.02  -0.10
  96   6    -0.01   0.00  -0.05     0.00  -0.01  -0.07    -0.00  -0.02  -0.14
  97   6    -0.01   0.01  -0.04     0.00  -0.01  -0.08    -0.00  -0.02  -0.12
  98   7    -0.01   0.01  -0.03     0.00  -0.01  -0.09    -0.00  -0.02  -0.07
  99   6    -0.01   0.01  -0.05     0.00  -0.01  -0.08    -0.00  -0.02  -0.15
 100   6    -0.01   0.01  -0.05     0.00  -0.01  -0.09    -0.00  -0.02  -0.13
 101   6    -0.01   0.02  -0.05     0.00  -0.01  -0.08    -0.01  -0.02  -0.15
 102   6    -0.01   0.02  -0.04     0.00  -0.01  -0.08    -0.00  -0.01  -0.12
 103   6    -0.00   0.02  -0.03     0.00  -0.01  -0.09    -0.00  -0.01  -0.07
 104   7    -0.01   0.02  -0.03     0.00  -0.02  -0.10    -0.00  -0.01  -0.08
 105   6     0.00   0.03  -0.02     0.00  -0.02  -0.09    -0.00  -0.00  -0.02
 106   6     0.00   0.03  -0.00    -0.00  -0.02  -0.11     0.00   0.00   0.03
 107   6     0.01   0.03   0.01    -0.00  -0.02  -0.12     0.00   0.01   0.07
 108   6     0.01   0.03   0.02    -0.00  -0.02  -0.13     0.00   0.01   0.11
 109   6     0.01   0.02   0.02    -0.00  -0.02  -0.13     0.00   0.01   0.08
 110   7     0.01   0.02   0.00    -0.00  -0.02  -0.12     0.00   0.00   0.04
 111   6     0.01   0.02   0.03    -0.00  -0.02  -0.13     0.00   0.01   0.11
 112   6     0.01   0.01   0.02    -0.00  -0.02  -0.12     0.00   0.00   0.08
 113   7     0.01   0.01   0.01    -0.00  -0.02  -0.11     0.00  -0.00   0.04
 114   1     0.00   0.00   0.01    -0.00  -0.00  -0.04     0.00   0.00   0.04
 115   1     0.00   0.00   0.01    -0.00  -0.00  -0.03     0.00  -0.00   0.02
 116   1    -0.00  -0.00  -0.01     0.00  -0.00  -0.02    -0.00  -0.01  -0.03
 117   1    -0.00  -0.00  -0.02     0.00  -0.00  -0.02    -0.00  -0.01  -0.05
 118   1    -0.00   0.00  -0.02     0.00  -0.00  -0.02    -0.00  -0.01  -0.05
 119   1    -0.00   0.01  -0.02     0.00  -0.00  -0.02    -0.00  -0.01  -0.06
 120   1    -0.00   0.01  -0.01     0.00  -0.00  -0.02    -0.00  -0.00  -0.04
 121   1     0.00   0.01   0.00    -0.00  -0.01  -0.03     0.00   0.00   0.02
 122   1     0.00   0.01   0.01    -0.00  -0.01  -0.04     0.00   0.00   0.04
 123   1     0.00   0.01   0.01    -0.00  -0.01  -0.04     0.00   0.00   0.04
 124  29     0.00   0.09  -0.06    -0.00  -0.01   0.00     0.00   0.03  -0.01
 125   6     0.00   0.03  -0.14     0.00  -0.01  -0.04     0.00   0.02   0.07
 126   6     0.00   0.03  -0.11     0.00  -0.01  -0.05     0.00   0.01   0.04
 127   6     0.00   0.03  -0.07     0.00  -0.01  -0.03     0.00   0.01   0.02
 128   6     0.00   0.04  -0.02     0.00  -0.01  -0.04    -0.00   0.01  -0.01
 129   6    -0.00   0.04   0.01    -0.00  -0.01  -0.03    -0.00   0.00  -0.04
 130   6    -0.00   0.05   0.06    -0.00  -0.01  -0.03    -0.00   0.00  -0.07
 131   6    -0.00   0.05   0.09    -0.00  -0.01  -0.02    -0.00  -0.00  -0.09
 132   6    -0.00   0.05   0.07    -0.00  -0.01  -0.01    -0.00   0.00  -0.07
 133   7    -0.00   0.05   0.02    -0.00  -0.01  -0.01    -0.00   0.01  -0.04
 134   6    -0.00   0.05   0.09    -0.00  -0.00   0.01    -0.00   0.00  -0.08
 135   6    -0.00   0.05   0.07    -0.00  -0.00   0.02    -0.00   0.01  -0.06
 136   6    -0.00   0.05   0.09    -0.00  -0.00   0.04    -0.00   0.01  -0.07
 137   6    -0.00   0.05   0.06    -0.00   0.00   0.05    -0.00   0.01  -0.05
 138   6    -0.00   0.05   0.02    -0.00  -0.00   0.04    -0.00   0.01  -0.03
 139   7    -0.00   0.05   0.02    -0.00  -0.00   0.02    -0.00   0.01  -0.04
 140   6     0.00   0.04  -0.02    -0.00  -0.00   0.04     0.00   0.02   0.00
 141   6     0.00   0.04  -0.07     0.00  -0.00   0.03     0.00   0.02   0.03
 142   6     0.00   0.03  -0.11     0.00  -0.00   0.03     0.00   0.02   0.05
 143   6     0.00   0.03  -0.14     0.00  -0.00   0.02     0.00   0.02   0.07
 144   6     0.00   0.03  -0.12     0.00  -0.00   0.01     0.00   0.02   0.06
 145   7     0.00   0.04  -0.08     0.00  -0.00   0.01     0.00   0.02   0.03
 146   6     0.00   0.03  -0.14     0.00  -0.01  -0.01     0.00   0.02   0.07
 147   6     0.00   0.03  -0.12     0.00  -0.01  -0.02     0.00   0.02   0.05
 148   7     0.00   0.04  -0.08     0.00  -0.01  -0.02     0.00   0.01   0.02
 149   1     0.00   0.01  -0.05     0.00  -0.00  -0.01     0.00   0.01   0.03
 150   1     0.00   0.01  -0.03     0.00  -0.00  -0.02     0.00   0.00   0.01
 151   1    -0.00   0.01   0.02    -0.00  -0.00  -0.01    -0.00  -0.00  -0.02
 152   1    -0.00   0.02   0.04    -0.00  -0.00  -0.00    -0.00  -0.00  -0.03
 153   1    -0.00   0.02   0.04    -0.00  -0.00   0.00    -0.00  -0.00  -0.03
 154   1    -0.00   0.02   0.04    -0.00   0.00   0.01    -0.00   0.00  -0.03
 155   1    -0.00   0.02   0.02    -0.00   0.00   0.02    -0.00   0.00  -0.01
 156   1     0.00   0.01  -0.03     0.00   0.00   0.01     0.00   0.01   0.02
 157   1     0.00   0.01  -0.05     0.00  -0.00   0.01     0.00   0.01   0.03
 158   1     0.00   0.01  -0.05     0.00  -0.00  -0.00     0.00   0.01   0.03
 159  29     0.00   0.05  -0.02    -0.00   0.02   0.23     0.00   0.03   0.04
 160   6    -0.01   0.01  -0.15     0.00   0.01   0.12    -0.00   0.01  -0.04
 161   6    -0.01   0.02  -0.11     0.00   0.01   0.11    -0.00   0.01  -0.02
 162   6    -0.00   0.02  -0.06     0.00   0.01   0.10    -0.00   0.01  -0.00
 163   6     0.00   0.03  -0.01    -0.00   0.01   0.09     0.00   0.02   0.02
 164   6     0.00   0.04   0.04    -0.00   0.01   0.10     0.00   0.02   0.04
 165   6     0.01   0.04   0.08    -0.00   0.01   0.10     0.00   0.02   0.06
 166   6     0.01   0.04   0.12    -0.00   0.01   0.10     0.00   0.02   0.08
 167   6     0.01   0.04   0.10    -0.00   0.01   0.10     0.00   0.02   0.07
 168   7     0.01   0.03   0.05    -0.00   0.01   0.11     0.00   0.02   0.05
 169   6     0.01   0.04   0.12    -0.00   0.01   0.10     0.00   0.02   0.08
 170   6     0.01   0.03   0.10    -0.00   0.01   0.10     0.00   0.02   0.07
 171   6     0.01   0.03   0.13    -0.00   0.01   0.09     0.00   0.02   0.08
 172   6     0.01   0.02   0.10    -0.00   0.01   0.08     0.00   0.01   0.06
 173   6     0.00   0.02   0.05    -0.00   0.01   0.09     0.00   0.01   0.04
 174   7     0.01   0.02   0.05    -0.00   0.01   0.10     0.00   0.02   0.05
 175   6    -0.00   0.01   0.00    -0.00   0.01   0.08     0.00   0.01   0.02
 176   6    -0.00   0.01  -0.05     0.00   0.01   0.09    -0.00   0.01  -0.00
 177   6    -0.01  -0.00  -0.09     0.00   0.01   0.09    -0.00   0.00  -0.03
 178   6    -0.01  -0.00  -0.13     0.00   0.01   0.11    -0.00   0.00  -0.04
 179   6    -0.01   0.00  -0.11     0.00   0.01   0.11    -0.00   0.01  -0.03
 180   7    -0.01   0.01  -0.06     0.00   0.01   0.11    -0.00   0.01  -0.01
 181   6    -0.01   0.01  -0.14     0.00   0.01   0.12    -0.00   0.01  -0.04
 182   6    -0.01   0.01  -0.12     0.00   0.01   0.11    -0.00   0.01  -0.03
 183   7    -0.01   0.02  -0.07     0.00   0.01   0.11    -0.00   0.01  -0.01
 184   1    -0.00   0.00  -0.05     0.00   0.00   0.04    -0.00   0.00  -0.02
 185   1    -0.00   0.01  -0.03     0.00   0.00   0.03    -0.00   0.00  -0.01
 186   1     0.00   0.01   0.03    -0.00   0.00   0.03     0.00   0.01   0.02
 187   1     0.00   0.01   0.05    -0.00   0.00   0.03     0.00   0.01   0.03
 188   1     0.00   0.01   0.05    -0.00   0.00   0.03     0.00   0.01   0.03
 189   1     0.00   0.01   0.05    -0.00   0.00   0.03     0.00   0.01   0.03
 190   1     0.00   0.00   0.03    -0.00   0.00   0.02     0.00   0.00   0.02
 191   1    -0.00  -0.00  -0.03     0.00   0.00   0.03    -0.00   0.00  -0.01
 192   1    -0.00  -0.00  -0.05     0.00   0.00   0.03    -0.00   0.00  -0.02
 193   1    -0.00   0.00  -0.05     0.00   0.00   0.04    -0.00   0.00  -0.02
                      7                      8                      9
                        a                      a                      a 
 Frequencies --     3.6371                 4.5529                 4.7145
 Red. masses --    17.4509                14.1844                16.1169
 Frc consts  --     0.0000                 0.0000                 0.0000
 IR Inten    --     4.1630                 0.1584                 0.0495
 Raman Activ --     0.0000                 0.0000                 0.0000
 Depolar     --     0.0000                 0.0000                 0.0000
 Atom AN      X      Y      Z        X      Y      Z        X      Y      Z
   1  29    -0.00   0.12  -0.02     0.00  -0.00  -0.03     0.00   0.00   0.05
   2   6    -0.07   0.00   0.01     0.01   0.00   0.04    -0.00  -0.00   0.00
   3   6    -0.05  -0.01   0.01     0.00   0.00   0.04    -0.00  -0.00  -0.01
   4   6    -0.02  -0.00   0.00     0.00   0.00   0.02    -0.00  -0.00  -0.01
   5   6    -0.00  -0.01   0.00     0.00   0.00   0.02     0.00  -0.00  -0.02
   6   6     0.02  -0.00  -0.01    -0.00   0.00   0.00     0.00  -0.00  -0.02
   7   6     0.05  -0.01  -0.01    -0.00   0.00  -0.00     0.00  -0.00  -0.04
   8   6     0.07   0.00  -0.01    -0.00   0.00  -0.02     0.01  -0.00  -0.04
   9   6     0.05   0.03  -0.02    -0.00   0.00  -0.03     0.00   0.00  -0.01
  10   7     0.03   0.03  -0.01    -0.00   0.00  -0.01     0.00   0.00  -0.01
  11   6     0.06   0.05  -0.02    -0.00  -0.00  -0.05     0.00   0.00  -0.00
  12   6     0.05   0.08  -0.02    -0.00  -0.00  -0.05     0.00   0.00   0.02
  13   6     0.06   0.10  -0.03    -0.00  -0.01  -0.07     0.00   0.01   0.04
  14   6     0.05   0.12  -0.03    -0.00  -0.01  -0.07     0.00   0.01   0.06
  15   6     0.02   0.10  -0.02     0.00  -0.01  -0.05     0.00   0.01   0.06
  16   7     0.03   0.09  -0.02    -0.00  -0.00  -0.05     0.00   0.00   0.04
  17   6    -0.00   0.12  -0.02     0.00  -0.01  -0.05     0.00   0.01   0.07
  18   6    -0.02   0.10  -0.01     0.00  -0.01  -0.03    -0.00   0.01   0.07
  19   6    -0.05   0.12  -0.01     0.01  -0.01  -0.02    -0.00   0.01   0.09
  20   6    -0.07   0.10  -0.00     0.01  -0.00  -0.00    -0.00   0.01   0.08
  21   6    -0.05   0.07  -0.00     0.01  -0.00   0.00    -0.00   0.00   0.06
  22   7    -0.03   0.08  -0.01     0.00  -0.00  -0.01    -0.00   0.00   0.06
  23   6    -0.07   0.05   0.01     0.01  -0.00   0.02    -0.00   0.00   0.04
  24   6    -0.05   0.03   0.01     0.01   0.00   0.03    -0.00   0.00   0.02
  25   7    -0.03   0.03   0.00     0.00   0.00   0.02    -0.00   0.00   0.01
  26   1    -0.03   0.00   0.00     0.00   0.00   0.02    -0.00  -0.00   0.00
  27   1    -0.01  -0.01   0.00     0.00   0.00   0.02    -0.00  -0.00  -0.01
  28   1     0.01  -0.01  -0.00    -0.00   0.00   0.00     0.00  -0.00  -0.02
  29   1     0.02   0.00  -0.01    -0.00   0.00  -0.01     0.00  -0.00  -0.01
  30   1     0.02   0.02  -0.01    -0.00  -0.00  -0.02     0.00   0.00  -0.00
  31   1     0.02   0.03  -0.01    -0.00  -0.00  -0.02     0.00   0.00   0.01
  32   1     0.01   0.04  -0.01    -0.00  -0.00  -0.03     0.00   0.00   0.02
  33   1    -0.00   0.04  -0.01     0.00  -0.00  -0.02     0.00   0.00   0.03
  34   1    -0.01   0.04  -0.00     0.00  -0.00  -0.01    -0.00   0.00   0.03
  35   1    -0.03   0.03   0.00     0.00  -0.00   0.00    -0.00   0.00   0.03
  36   1    -0.02   0.01   0.00     0.00  -0.00   0.01    -0.00   0.00   0.01
  37  29     0.00  -0.10   0.02    -0.00   0.00  -0.03    -0.00   0.00   0.05
  38   6     0.06   0.00   0.00     0.01   0.01  -0.01    -0.01   0.00  -0.04
  39   6     0.04   0.02  -0.00     0.01   0.01   0.00    -0.01   0.00  -0.05
  40   6     0.02   0.01  -0.00     0.00   0.00   0.01    -0.00   0.00  -0.03
  41   6     0.00   0.02  -0.00    -0.00   0.00   0.02    -0.00  -0.00  -0.03
  42   6    -0.02   0.01  -0.00    -0.00   0.00   0.03     0.00  -0.00  -0.01
  43   6    -0.04   0.02  -0.01    -0.01  -0.00   0.04     0.01  -0.00  -0.01
  44   6    -0.06   0.00  -0.00    -0.01  -0.00   0.04     0.01  -0.00   0.01
  45   6    -0.05  -0.02  -0.00    -0.01  -0.00   0.03     0.01  -0.00   0.02
  46   7    -0.03  -0.02   0.00    -0.01  -0.00   0.02     0.00  -0.00   0.01
  47   6    -0.06  -0.04   0.00    -0.01  -0.01   0.02     0.01  -0.00   0.05
  48   6    -0.05  -0.07   0.01    -0.01  -0.01   0.00     0.01  -0.00   0.06
  49   6    -0.06  -0.09   0.01    -0.01  -0.01  -0.01     0.01  -0.00   0.09
  50   6    -0.04  -0.11   0.02    -0.01  -0.01  -0.03     0.01   0.00   0.09
  51   6    -0.02  -0.10   0.02    -0.01  -0.00  -0.03     0.00   0.00   0.07
  52   7    -0.03  -0.08   0.01    -0.01  -0.00  -0.02     0.00   0.00   0.06
  53   6     0.00  -0.11   0.02    -0.00  -0.00  -0.05    -0.00   0.00   0.07
  54   6     0.02  -0.10   0.02     0.00   0.00  -0.05    -0.01   0.00   0.05
  55   6     0.04  -0.11   0.02     0.00   0.00  -0.07    -0.01   0.01   0.05
  56   6     0.06  -0.09   0.02     0.01   0.00  -0.07    -0.01   0.01   0.03
  57   6     0.05  -0.07   0.01     0.01   0.00  -0.05    -0.01   0.01   0.02
  58   7     0.03  -0.08   0.02     0.00   0.00  -0.04    -0.01   0.00   0.03
  59   6     0.06  -0.04   0.01     0.01   0.01  -0.04    -0.01   0.01  -0.01
  60   6     0.05  -0.02   0.01     0.01   0.00  -0.02    -0.01   0.00  -0.02
  61   7     0.03  -0.02   0.00     0.00   0.00  -0.01    -0.01   0.00  -0.01
  62   1     0.02   0.00   0.00     0.00   0.00  -0.01    -0.00   0.00  -0.02
  63   1     0.01   0.01  -0.00     0.00   0.00   0.00    -0.00   0.00  -0.02
  64   1    -0.01   0.01  -0.00    -0.00   0.00   0.02     0.00  -0.00  -0.01
  65   1    -0.02   0.00  -0.00    -0.00  -0.00   0.02     0.00  -0.00   0.00
  66   1    -0.02  -0.01   0.00    -0.00  -0.00   0.01     0.00  -0.00   0.02
  67   1    -0.02  -0.03   0.00    -0.00  -0.00   0.00     0.00  -0.00   0.03
  68   1    -0.01  -0.04   0.01    -0.00  -0.00  -0.01     0.00   0.00   0.03
  69   1     0.00  -0.04   0.01    -0.00  -0.00  -0.02    -0.00   0.00   0.03
  70   1     0.01  -0.04   0.01     0.00   0.00  -0.02    -0.00   0.00   0.02
  71   1     0.02  -0.03   0.01     0.00   0.00  -0.02    -0.00   0.00   0.01
  72   1     0.02  -0.01   0.00     0.00   0.00  -0.01    -0.00   0.00  -0.00
  73   6    -0.00  -0.04   0.00     0.00   0.01   0.03     0.00  -0.00  -0.04
  74   6     0.00  -0.06   0.01     0.00   0.01   0.04     0.00  -0.01  -0.05
  75   6     0.00  -0.07   0.01     0.00   0.01   0.05     0.00  -0.01  -0.06
  76   6     0.00  -0.08   0.01     0.00   0.01   0.05     0.00  -0.01  -0.07
  77   6     0.00  -0.09   0.01     0.00  -0.00   0.00     0.00  -0.00  -0.00
  78   6     0.00  -0.09   0.01     0.00  -0.00  -0.01     0.00   0.00   0.01
  79   6     0.00  -0.08   0.01     0.00  -0.01  -0.03     0.00   0.00   0.03
  80   6     0.00  -0.07   0.01     0.00  -0.01  -0.04     0.00   0.01   0.05
  81   6     0.00   0.06  -0.01    -0.00  -0.01  -0.05    -0.00   0.01   0.05
  82   6     0.00   0.07  -0.01    -0.00  -0.01  -0.03    -0.00   0.00   0.04
  83   6     0.00   0.08  -0.01    -0.00  -0.00  -0.02    -0.00   0.00   0.02
  84   6     0.00   0.09  -0.01    -0.00  -0.00  -0.00    -0.00   0.00  -0.00
  85   6     0.00   0.08  -0.01    -0.00   0.01   0.05    -0.00  -0.01  -0.07
  86   6    -0.00   0.07  -0.01    -0.00   0.01   0.05    -0.00  -0.01  -0.06
  87   6    -0.00   0.06  -0.01    -0.00   0.01   0.04    -0.00  -0.01  -0.05
  88   6     0.00   0.04  -0.01    -0.00   0.00   0.03    -0.00  -0.00  -0.04
  89  29     0.00  -0.21   0.03     0.00   0.01   0.11     0.00  -0.02  -0.14
  90   6    -0.00  -0.09   0.00    -0.00  -0.00  -0.04     0.00  -0.02  -0.16
  91   6    -0.00  -0.09   0.00    -0.00   0.00  -0.01     0.00  -0.02  -0.14
  92   6    -0.00  -0.09   0.01     0.00   0.00   0.02     0.00  -0.01  -0.10
  93   6     0.00  -0.08   0.01     0.00   0.01   0.06     0.00  -0.01  -0.07
  94   6     0.00  -0.08   0.02     0.00   0.01   0.10     0.00  -0.01  -0.05
  95   6     0.00  -0.08   0.02     0.00   0.02   0.14     0.00  -0.00  -0.02
  96   6     0.01  -0.08   0.03     0.00   0.02   0.17     0.00  -0.00  -0.00
  97   6     0.00  -0.09   0.02     0.00   0.02   0.15     0.00  -0.00  -0.01
  98   7     0.00  -0.09   0.02     0.00   0.01   0.11     0.00  -0.00  -0.04
  99   6     0.00  -0.09   0.03     0.00   0.02   0.16     0.00   0.00   0.00
 100   6     0.00  -0.09   0.03     0.00   0.02   0.13     0.00   0.00   0.00
 101   6     0.01  -0.09   0.03     0.00   0.02   0.14     0.00   0.00   0.03
 102   6     0.00  -0.09   0.02     0.00   0.01   0.10     0.00   0.00   0.02
 103   6     0.00  -0.09   0.02     0.00   0.01   0.06     0.00  -0.00  -0.01
 104   7     0.00  -0.10   0.02     0.00   0.01   0.09     0.00  -0.00  -0.02
 105   6     0.00  -0.09   0.02     0.00   0.00   0.02     0.00  -0.00  -0.02
 106   6    -0.00  -0.09   0.01     0.00  -0.00  -0.01     0.00  -0.01  -0.06
 107   6    -0.00  -0.10   0.01    -0.00  -0.01  -0.05     0.00  -0.01  -0.09
 108   6    -0.00  -0.09   0.00    -0.00  -0.01  -0.07     0.00  -0.01  -0.13
 109   6    -0.00  -0.09   0.00    -0.00  -0.00  -0.04     0.00  -0.01  -0.12
 110   7    -0.00  -0.10   0.01     0.00  -0.00  -0.00     0.00  -0.01  -0.09
 111   6    -0.00  -0.09   0.00    -0.00  -0.00  -0.05     0.00  -0.02  -0.15
 112   6    -0.00  -0.09   0.00    -0.00  -0.00  -0.02     0.00  -0.02  -0.14
 113   7    -0.00  -0.09   0.01    -0.00   0.00   0.01     0.00  -0.01  -0.11
 114   1    -0.00  -0.03  -0.00    -0.00  -0.00  -0.02    -0.00  -0.01  -0.06
 115   1    -0.00  -0.02   0.00    -0.00   0.00  -0.00     0.00  -0.00  -0.04
 116   1     0.00  -0.02   0.01     0.00   0.01   0.04     0.00  -0.00  -0.01
 117   1     0.00  -0.02   0.01     0.00   0.01   0.06     0.00   0.00   0.00
 118   1     0.00  -0.03   0.01     0.00   0.01   0.06     0.00   0.00   0.01
 119   1     0.00  -0.03   0.01     0.00   0.01   0.05     0.00   0.00   0.01
 120   1     0.00  -0.03   0.01     0.00   0.00   0.03     0.00   0.00   0.01
 121   1    -0.00  -0.03   0.00    -0.00  -0.00  -0.02     0.00  -0.00  -0.02
 122   1    -0.00  -0.03  -0.00    -0.00  -0.00  -0.03     0.00  -0.01  -0.04
 123   1    -0.00  -0.03  -0.00    -0.00  -0.00  -0.02     0.00  -0.01  -0.05
 124  29     0.00  -0.01   0.00     0.00  -0.02  -0.17     0.00   0.02   0.20
 125   6     0.05  -0.04   0.00     0.00   0.01   0.07     0.00   0.02   0.21
 126   6     0.03  -0.05   0.00     0.00   0.00   0.04     0.00   0.02   0.16
 127   6     0.02  -0.04   0.00     0.00  -0.00  -0.01     0.00   0.01   0.12
 128   6     0.00  -0.05   0.01     0.00  -0.01  -0.06     0.00   0.01   0.07
 129   6    -0.02  -0.04   0.01     0.00  -0.02  -0.12     0.00   0.00   0.04
 130   6    -0.03  -0.05   0.01     0.00  -0.02  -0.17     0.00  -0.00  -0.00
 131   6    -0.05  -0.04   0.01     0.00  -0.03  -0.23     0.00  -0.00  -0.02
 132   6    -0.04  -0.02   0.01     0.00  -0.03  -0.20     0.00   0.00   0.00
 133   7    -0.02  -0.02   0.01     0.00  -0.02  -0.14     0.00   0.00   0.04
 134   6    -0.05  -0.00   0.00    -0.00  -0.03  -0.23    -0.00  -0.00  -0.01
 135   6    -0.04   0.01   0.00    -0.00  -0.03  -0.20    -0.00   0.00   0.00
 136   6    -0.05   0.03  -0.00    -0.00  -0.03  -0.23    -0.00  -0.00  -0.02
 137   6    -0.03   0.04  -0.00    -0.00  -0.02  -0.18    -0.00  -0.00  -0.00
 138   6    -0.02   0.03  -0.00    -0.00  -0.02  -0.12    -0.00   0.00   0.04
 139   7    -0.02   0.02  -0.00    -0.00  -0.02  -0.14    -0.00   0.00   0.04
 140   6     0.00   0.04  -0.01    -0.00  -0.01  -0.06    -0.00   0.01   0.07
 141   6     0.02   0.03  -0.01    -0.00  -0.00  -0.01    -0.00   0.01   0.12
 142   6     0.03   0.04  -0.01    -0.00   0.00   0.04     0.00   0.02   0.17
 143   6     0.05   0.03  -0.01    -0.00   0.01   0.07     0.00   0.03   0.21
 144   6     0.04   0.01  -0.01    -0.00   0.00   0.04     0.00   0.02   0.19
 145   7     0.02   0.02  -0.00    -0.00  -0.00  -0.01    -0.00   0.02   0.15
 146   6     0.05  -0.00  -0.00     0.00   0.01   0.06     0.00   0.03   0.22
 147   6     0.04  -0.02  -0.00     0.00   0.00   0.04     0.00   0.02   0.19
 148   7     0.02  -0.03   0.00     0.00  -0.00  -0.01     0.00   0.02   0.15
 149   1     0.02  -0.01  -0.00     0.00   0.00   0.03     0.00   0.01   0.07
 150   1     0.01  -0.02   0.00     0.00   0.00   0.02     0.00   0.01   0.05
 151   1    -0.01  -0.02   0.00     0.00  -0.01  -0.05     0.00  -0.00  -0.00
 152   1    -0.02  -0.01   0.00     0.00  -0.01  -0.08    -0.00  -0.00  -0.02
 153   1    -0.02  -0.00   0.00    -0.00  -0.01  -0.08    -0.00  -0.00  -0.01
 154   1    -0.02   0.01  -0.00    -0.00  -0.01  -0.08    -0.00  -0.00  -0.02
 155   1    -0.01   0.02  -0.00    -0.00  -0.01  -0.05    -0.00  -0.00  -0.00
 156   1     0.01   0.02  -0.00    -0.00   0.00   0.01     0.00   0.01   0.05
 157   1     0.02   0.01  -0.00    -0.00   0.00   0.03     0.00   0.01   0.07
 158   1     0.02  -0.00  -0.00     0.00   0.00   0.03     0.00   0.01   0.08
 159  29     0.00   0.20  -0.03    -0.00   0.01   0.10    -0.00  -0.01  -0.14
 160   6    -0.00   0.09  -0.01    -0.00  -0.01  -0.07    -0.00  -0.01  -0.13
 161   6    -0.00   0.09  -0.01    -0.00  -0.01  -0.06    -0.00  -0.01  -0.09
 162   6    -0.00   0.09  -0.01    -0.00  -0.00  -0.02    -0.00  -0.01  -0.06
 163   6     0.00   0.09  -0.01    -0.00   0.00   0.01    -0.00  -0.00  -0.02
 164   6     0.00   0.09  -0.02    -0.00   0.01   0.06    -0.00   0.00  -0.00
 165   6     0.00   0.09  -0.02    -0.00   0.01   0.10    -0.00   0.00   0.03
 166   6     0.00   0.09  -0.02    -0.00   0.02   0.14    -0.00   0.01   0.04
 167   6     0.00   0.09  -0.02    -0.00   0.01   0.13    -0.00   0.00   0.01
 168   7     0.00   0.09  -0.02    -0.00   0.01   0.09    -0.00  -0.00  -0.02
 169   6     0.00   0.09  -0.02    -0.00   0.02   0.16    -0.00   0.00   0.01
 170   6     0.00   0.09  -0.02    -0.00   0.02   0.14    -0.00   0.00  -0.01
 171   6     0.00   0.08  -0.02    -0.00   0.02   0.17    -0.00   0.00   0.00
 172   6     0.00   0.08  -0.02    -0.00   0.02   0.14    -0.00  -0.00  -0.02
 173   6     0.00   0.08  -0.02    -0.00   0.01   0.09    -0.00  -0.00  -0.04
 174   7     0.00   0.09  -0.02    -0.00   0.01   0.11    -0.00  -0.00  -0.04
 175   6     0.00   0.08  -0.01    -0.00   0.01   0.05    -0.00  -0.01  -0.07
 176   6    -0.00   0.09  -0.01    -0.00   0.00   0.02    -0.00  -0.01  -0.11
 177   6    -0.00   0.09  -0.01     0.00  -0.00  -0.02    -0.00  -0.02  -0.15
 178   6    -0.00   0.09  -0.01     0.00  -0.01  -0.05    -0.00  -0.02  -0.17
 179   6    -0.00   0.09  -0.01     0.00  -0.00  -0.03    -0.00  -0.02  -0.15
 180   7    -0.00   0.09  -0.01     0.00   0.00   0.01    -0.00  -0.01  -0.12
 181   6    -0.00   0.09  -0.01     0.00  -0.01  -0.05    -0.00  -0.02  -0.16
 182   6    -0.00   0.09  -0.01    -0.00  -0.01  -0.04    -0.00  -0.01  -0.13
 183   7    -0.00   0.09  -0.01    -0.00  -0.00  -0.01    -0.00  -0.01  -0.09
 184   1    -0.00   0.03  -0.00    -0.00  -0.00  -0.03    -0.00  -0.01  -0.05
 185   1    -0.00   0.03  -0.00    -0.00  -0.00  -0.02    -0.00  -0.00  -0.02
 186   1     0.00   0.03  -0.01    -0.00   0.00   0.03    -0.00   0.00   0.01
 187   1     0.00   0.03  -0.01    -0.00   0.01   0.05    -0.00   0.00   0.02
 188   1     0.00   0.02  -0.01    -0.00   0.01   0.06    -0.00   0.00   0.01
 189   1     0.00   0.02  -0.01    -0.00   0.01   0.06     0.00   0.00   0.01
 190   1     0.00   0.02  -0.01    -0.00   0.01   0.04    -0.00  -0.00  -0.01
 191   1    -0.00   0.02  -0.00     0.00  -0.00  -0.01    -0.00  -0.00  -0.04
 192   1    -0.00   0.02  -0.00     0.00  -0.00  -0.02     0.00  -0.01  -0.06
 193   1    -0.00   0.03  -0.00     0.00  -0.00  -0.02    -0.00  -0.01  -0.06
                     10                     11                     12
                        a                      a                      a 
 Frequencies --     6.8838                10.0326                10.1744
 Red. masses --    14.6558                11.6587                11.7375
 Frc consts  --     0.0000                 0.0000                 0.0000
 IR Inten    --    35.3610                 3.9344                 7.2954
 Raman Activ --     0.0000                 0.0000                 0.0000
 Depolar     --     0.0000                 0.0000                 0.0000
 Atom AN      X      Y      Z        X      Y      Z        X      Y      Z
   1  29     0.00  -0.02   0.00    -0.00  -0.01   0.00    -0.00  -0.01  -0.01
   2   6     0.08   0.05  -0.01    -0.07  -0.05   0.05    -0.03  -0.03  -0.11
   3   6     0.06   0.07  -0.01    -0.05  -0.07   0.05    -0.02  -0.04  -0.12
   4   6     0.03   0.06  -0.01    -0.02  -0.06   0.04    -0.01  -0.03  -0.09
   5   6     0.00   0.07  -0.01    -0.00  -0.07   0.04    -0.00  -0.04  -0.10
   6   6    -0.03   0.06  -0.01     0.02  -0.06   0.04     0.01  -0.03  -0.09
   7   6    -0.06   0.07  -0.01     0.05  -0.07   0.05     0.02  -0.04  -0.12
   8   6    -0.08   0.05  -0.00     0.06  -0.05   0.04     0.03  -0.03  -0.10
   9   6    -0.07   0.02  -0.00     0.05  -0.03   0.02     0.03  -0.01  -0.06
  10   7    -0.04   0.03  -0.00     0.03  -0.03   0.03     0.01  -0.02  -0.06
  11   6    -0.08  -0.01   0.00     0.06  -0.00   0.01     0.03  -0.00  -0.03
  12   6    -0.06  -0.04   0.01     0.05   0.02  -0.01     0.03   0.01   0.03
  13   6    -0.08  -0.07   0.01     0.06   0.04  -0.04     0.03   0.02   0.08
  14   6    -0.06  -0.09   0.02     0.05   0.06  -0.06     0.02   0.03   0.13
  15   6    -0.03  -0.08   0.01     0.02   0.05  -0.05     0.01   0.03   0.11
  16   7    -0.04  -0.05   0.01     0.03   0.02  -0.02     0.01   0.01   0.05
  17   6     0.00  -0.09   0.02    -0.00   0.06  -0.06    -0.00   0.03   0.14
  18   6     0.03  -0.08   0.01    -0.03   0.05  -0.04    -0.01   0.02   0.11
  19   6     0.06  -0.09   0.01    -0.05   0.06  -0.05    -0.03   0.03   0.13
  20   6     0.08  -0.07   0.01    -0.07   0.04  -0.03    -0.04   0.02   0.08
  21   6     0.07  -0.04   0.00    -0.05   0.02  -0.01    -0.03   0.01   0.03
  22   7     0.04  -0.05   0.01    -0.03   0.02  -0.02    -0.02   0.01   0.05
  23   6     0.08  -0.01  -0.00    -0.07  -0.01   0.01    -0.03  -0.00  -0.03
  24   6     0.07   0.02  -0.01    -0.05  -0.03   0.03    -0.03  -0.01  -0.07
  25   7     0.04   0.03  -0.01    -0.03  -0.04   0.03    -0.02  -0.02  -0.07
  26   1     0.03   0.02  -0.00    -0.03  -0.02   0.02    -0.01  -0.01  -0.04
  27   1     0.02   0.03  -0.00    -0.01  -0.03   0.02    -0.01  -0.01  -0.04
  28   1    -0.02   0.03  -0.00     0.01  -0.03   0.02     0.01  -0.01  -0.04
  29   1    -0.03   0.02  -0.00     0.02  -0.02   0.01     0.01  -0.01  -0.03
  30   1    -0.03  -0.00   0.00     0.02  -0.00   0.00     0.01  -0.00  -0.01
  31   1    -0.03  -0.02   0.00     0.02   0.01  -0.01     0.01   0.01   0.02
  32   1    -0.02  -0.03   0.01     0.01   0.02  -0.02     0.01   0.01   0.05
  33   1     0.00  -0.03   0.01    -0.00   0.02  -0.02    -0.00   0.01   0.06
  34   1     0.02  -0.03   0.00    -0.01   0.02  -0.02    -0.01   0.01   0.05
  35   1     0.03  -0.02   0.00    -0.03   0.01  -0.01    -0.01   0.01   0.02
  36   1     0.03  -0.00  -0.00    -0.03  -0.00   0.01    -0.01  -0.00  -0.01
  37  29     0.00  -0.02   0.01     0.00   0.01  -0.01     0.00   0.01   0.02
  38   6     0.08   0.05  -0.01     0.06   0.06  -0.07     0.05   0.02   0.11
  39   6     0.06   0.08  -0.02     0.04   0.08  -0.07     0.03   0.03   0.13
  40   6     0.03   0.06  -0.01     0.02   0.06  -0.05     0.02   0.03   0.10
  41   6    -0.00   0.07  -0.01     0.00   0.07  -0.06     0.00   0.03   0.10
  42   6    -0.03   0.06  -0.01    -0.02   0.06  -0.05    -0.02   0.03   0.09
  43   6    -0.06   0.07  -0.01    -0.04   0.07  -0.07    -0.03   0.03   0.12
  44   6    -0.08   0.05  -0.01    -0.05   0.06  -0.06    -0.05   0.02   0.11
  45   6    -0.06   0.02  -0.01    -0.04   0.03  -0.04    -0.04   0.01   0.07
  46   7    -0.03   0.03  -0.01    -0.02   0.04  -0.04    -0.02   0.01   0.07
  47   6    -0.08  -0.01  -0.00    -0.05   0.01  -0.02    -0.05  -0.00   0.03
  48   6    -0.06  -0.04   0.01    -0.04  -0.02   0.01    -0.04  -0.01  -0.03
  49   6    -0.08  -0.07   0.02    -0.05  -0.04   0.04    -0.05  -0.02  -0.08
  50   6    -0.06  -0.09   0.02    -0.04  -0.07   0.08    -0.03  -0.02  -0.13
  51   6    -0.03  -0.08   0.02    -0.02  -0.05   0.06    -0.02  -0.01  -0.11
  52   7    -0.03  -0.05   0.01    -0.02  -0.03   0.03    -0.02  -0.01  -0.05
  53   6     0.00  -0.09   0.03     0.00  -0.07   0.08    -0.00  -0.02  -0.14
  54   6     0.03  -0.08   0.02     0.02  -0.05   0.06     0.02  -0.01  -0.11
  55   6     0.06  -0.09   0.02     0.04  -0.07   0.08     0.03  -0.02  -0.13
  56   6     0.08  -0.07   0.01     0.06  -0.04   0.04     0.05  -0.02  -0.08
  57   6     0.06  -0.04   0.01     0.05  -0.02   0.01     0.04  -0.01  -0.03
  58   7     0.04  -0.05   0.01     0.03  -0.03   0.03     0.02  -0.01  -0.05
  59   6     0.08  -0.01  -0.00     0.06   0.01  -0.02     0.05  -0.00   0.03
  60   6     0.06   0.02  -0.01     0.05   0.03  -0.04     0.04   0.01   0.07
  61   7     0.04   0.03  -0.01     0.03   0.04  -0.04     0.02   0.01   0.07
  62   1     0.03   0.02  -0.01     0.02   0.02  -0.02     0.02   0.01   0.04
  63   1     0.02   0.03  -0.01     0.01   0.03  -0.03     0.01   0.01   0.04
  64   1    -0.02   0.03  -0.01    -0.01   0.03  -0.02    -0.01   0.01   0.04
  65   1    -0.03   0.02  -0.00    -0.02   0.02  -0.02    -0.02   0.01   0.04
  66   1    -0.03  -0.00  -0.00    -0.02   0.00  -0.01    -0.02  -0.00   0.01
  67   1    -0.03  -0.02   0.00    -0.02  -0.01   0.01    -0.02  -0.01  -0.02
  68   1    -0.02  -0.03   0.01    -0.01  -0.03   0.03    -0.01  -0.01  -0.05
  69   1     0.00  -0.03   0.01     0.00  -0.03   0.03    -0.00  -0.01  -0.06
  70   1     0.02  -0.03   0.01     0.01  -0.03   0.03     0.01  -0.01  -0.05
  71   1     0.03  -0.02   0.00     0.02  -0.01   0.01     0.02  -0.01  -0.02
  72   1     0.03  -0.00  -0.00     0.02   0.00  -0.01     0.02  -0.00   0.01
  73   6    -0.00   0.10  -0.01    -0.00  -0.09   0.05    -0.00  -0.05  -0.11
  74   6    -0.00   0.12  -0.01    -0.00  -0.10   0.05    -0.00  -0.05  -0.11
  75   6    -0.00   0.12  -0.01    -0.00  -0.10   0.05    -0.00  -0.05  -0.11
  76   6    -0.00   0.12  -0.01    -0.00  -0.08   0.04    -0.00  -0.04  -0.09
  77   6    -0.00  -0.04   0.00    -0.00   0.11  -0.04     0.00   0.05   0.09
  78   6    -0.00  -0.05   0.01    -0.00   0.12  -0.04     0.00   0.06   0.09
  79   6    -0.00  -0.07   0.01    -0.00   0.12  -0.04     0.00   0.06   0.09
  80   6    -0.00  -0.08   0.01    -0.00   0.10  -0.04     0.00   0.05   0.08
  81   6    -0.00  -0.08   0.01    -0.00  -0.10   0.04     0.00  -0.05  -0.08
  82   6    -0.00  -0.07   0.01    -0.00  -0.12   0.05     0.00  -0.06  -0.09
  83   6    -0.00  -0.06   0.01    -0.00  -0.12   0.05     0.00  -0.06  -0.10
  84   6    -0.00  -0.04   0.00    -0.00  -0.11   0.05     0.00  -0.06  -0.09
  85   6    -0.00   0.12  -0.01     0.00   0.08  -0.04     0.00   0.04   0.09
  86   6    -0.00   0.12  -0.02     0.00   0.09  -0.05     0.00   0.05   0.11
  87   6    -0.00   0.12  -0.02     0.00   0.10  -0.06     0.00   0.05   0.12
  88   6    -0.00   0.10  -0.01     0.00   0.09  -0.06     0.00   0.05   0.12
  89  29    -0.00   0.10  -0.01    -0.00   0.03  -0.01     0.00   0.02   0.03
  90   6    -0.06   0.09  -0.00     0.07  -0.04   0.02     0.03  -0.02  -0.03
  91   6    -0.04   0.10  -0.01     0.05  -0.06   0.03     0.02  -0.03  -0.06
  92   6    -0.02   0.09  -0.01     0.03  -0.04   0.02     0.01  -0.02  -0.05
  93   6    -0.00   0.10  -0.01    -0.00  -0.06   0.03    -0.00  -0.03  -0.06
  94   6     0.02   0.09  -0.01    -0.03  -0.04   0.02    -0.01  -0.02  -0.05
  95   6     0.04   0.10  -0.02    -0.05  -0.06   0.03    -0.02  -0.03  -0.06
  96   6     0.06   0.08  -0.02    -0.07  -0.04   0.02    -0.03  -0.02  -0.04
  97   6     0.04   0.06  -0.02    -0.06  -0.01   0.01    -0.02  -0.00  -0.01
  98   7     0.02   0.07  -0.01    -0.03  -0.02   0.01    -0.01  -0.01  -0.02
  99   6     0.06   0.04  -0.02    -0.07   0.01  -0.01    -0.03   0.01   0.02
 100   6     0.04   0.02  -0.01    -0.06   0.04  -0.02    -0.02   0.02   0.05
 101   6     0.06   0.00  -0.01    -0.07   0.06  -0.03    -0.03   0.03   0.07
 102   6     0.04  -0.01  -0.01    -0.05   0.08  -0.03    -0.02   0.04   0.08
 103   6     0.02  -0.00  -0.00    -0.03   0.07  -0.03    -0.01   0.04   0.07
 104   7     0.02   0.02  -0.01    -0.03   0.05  -0.02    -0.01   0.02   0.05
 105   6    -0.00  -0.01   0.00    -0.00   0.08  -0.03     0.00   0.04   0.08
 106   6    -0.02  -0.00   0.00     0.03   0.07  -0.03     0.01   0.04   0.07
 107   6    -0.04  -0.01   0.01     0.05   0.08  -0.04     0.02   0.04   0.09
 108   6    -0.06   0.00   0.01     0.07   0.06  -0.03     0.03   0.03   0.07
 109   6    -0.05   0.02   0.00     0.06   0.04  -0.02     0.02   0.02   0.05
 110   7    -0.03   0.02   0.00     0.03   0.05  -0.02     0.01   0.02   0.05
 111   6    -0.06   0.04   0.00     0.07   0.01  -0.01     0.03   0.01   0.02
 112   6    -0.05   0.06  -0.00     0.06  -0.01   0.00     0.02  -0.01  -0.01
 113   7    -0.03   0.07  -0.01     0.03  -0.02   0.01     0.01  -0.01  -0.02
 114   1    -0.02   0.03   0.00     0.03  -0.01   0.00     0.01  -0.01  -0.01
 115   1    -0.01   0.03  -0.00     0.02  -0.02   0.01     0.01  -0.01  -0.02
 116   1     0.01   0.03  -0.01    -0.02  -0.02   0.01    -0.01  -0.01  -0.02
 117   1     0.02   0.02  -0.01    -0.03  -0.01   0.01    -0.01  -0.01  -0.01
 118   1     0.02   0.01  -0.01    -0.03   0.00  -0.00    -0.01   0.00   0.01
 119   1     0.02  -0.00  -0.00    -0.03   0.02  -0.01    -0.01   0.01   0.02
 120   1     0.01  -0.01  -0.00    -0.02   0.03  -0.01    -0.01   0.02   0.03
 121   1    -0.01  -0.01   0.00     0.02   0.03  -0.01     0.01   0.02   0.03
 122   1    -0.02   0.00   0.00     0.03   0.02  -0.01     0.01   0.01   0.02
 123   1    -0.02   0.01   0.00     0.03   0.00  -0.00     0.01   0.00   0.01
 124  29    -0.00  -0.19   0.02    -0.00   0.00  -0.01     0.00  -0.00   0.01
 125   6    -0.00  -0.08   0.01    -0.08   0.05  -0.03    -0.03   0.03   0.05
 126   6    -0.00  -0.08   0.01    -0.06   0.08  -0.03    -0.02   0.04   0.07
 127   6    -0.00  -0.08   0.01    -0.03   0.06  -0.03    -0.01   0.03   0.05
 128   6    -0.00  -0.08   0.01    -0.00   0.08  -0.03     0.00   0.04   0.06
 129   6    -0.00  -0.08   0.01     0.03   0.06  -0.03     0.01   0.03   0.05
 130   6    -0.00  -0.08   0.01     0.06   0.08  -0.03     0.02   0.04   0.07
 131   6    -0.00  -0.08   0.01     0.08   0.05  -0.03     0.03   0.03   0.05
 132   6    -0.00  -0.08   0.01     0.06   0.03  -0.02     0.02   0.01   0.03
 133   7    -0.00  -0.09   0.01     0.03   0.03  -0.02     0.01   0.02   0.03
 134   6    -0.00  -0.08   0.01     0.08  -0.00  -0.00     0.03  -0.00   0.00
 135   6    -0.00  -0.08   0.01     0.06  -0.03   0.01     0.02  -0.01  -0.02
 136   6    -0.00  -0.08   0.01     0.08  -0.05   0.02     0.03  -0.03  -0.05
 137   6    -0.00  -0.08   0.01     0.06  -0.08   0.03     0.02  -0.04  -0.06
 138   6    -0.00  -0.08   0.01     0.03  -0.06   0.02     0.01  -0.03  -0.05
 139   7    -0.00  -0.09   0.01     0.03  -0.03   0.01     0.01  -0.02  -0.03
 140   6    -0.00  -0.08   0.01    -0.00  -0.08   0.03     0.00  -0.04  -0.06
 141   6    -0.00  -0.08   0.01    -0.03  -0.06   0.02    -0.01  -0.03  -0.05
 142   6    -0.00  -0.08   0.01    -0.06  -0.08   0.03    -0.02  -0.04  -0.06
 143   6    -0.00  -0.08   0.01    -0.08  -0.05   0.02    -0.03  -0.03  -0.05
 144   6    -0.00  -0.08   0.01    -0.06  -0.03   0.01    -0.02  -0.01  -0.02
 145   7    -0.00  -0.09   0.01    -0.03  -0.03   0.01    -0.01  -0.02  -0.03
 146   6    -0.00  -0.08   0.01    -0.08   0.00  -0.00    -0.03  -0.00   0.00
 147   6    -0.00  -0.08   0.01    -0.06   0.03  -0.01    -0.02   0.01   0.03
 148   7    -0.00  -0.09   0.01    -0.03   0.03  -0.02    -0.01   0.02   0.03
 149   1    -0.00  -0.02   0.00    -0.03   0.02  -0.01    -0.01   0.01   0.02
 150   1    -0.00  -0.02   0.00    -0.02   0.03  -0.01    -0.01   0.01   0.03
 151   1    -0.00  -0.02   0.00     0.02   0.03  -0.01     0.01   0.01   0.03
 152   1    -0.00  -0.02   0.00     0.03   0.02  -0.01     0.01   0.01   0.02
 153   1    -0.00  -0.02   0.00     0.03  -0.00  -0.00     0.01  -0.00   0.00
 154   1    -0.00  -0.02   0.00     0.03  -0.02   0.01     0.01  -0.01  -0.01
 155   1    -0.00  -0.02   0.00     0.02  -0.03   0.01     0.01  -0.01  -0.02
 156   1    -0.00  -0.02   0.00    -0.02  -0.03   0.01    -0.01  -0.01  -0.02
 157   1    -0.00  -0.02   0.00    -0.03  -0.02   0.01    -0.01  -0.01  -0.01
 158   1    -0.00  -0.02   0.00    -0.03   0.00  -0.00    -0.01  -0.00   0.00
 159  29    -0.00   0.10  -0.02     0.00  -0.03   0.02     0.00  -0.02  -0.04
 160   6     0.06   0.00  -0.01     0.07  -0.06   0.04     0.03  -0.04  -0.08
 161   6     0.04  -0.01  -0.00     0.05  -0.08   0.04     0.02  -0.04  -0.09
 162   6     0.02  -0.00  -0.00     0.03  -0.07   0.04     0.01  -0.04  -0.07
 163   6    -0.00  -0.01  -0.00     0.00  -0.08   0.04     0.00  -0.04  -0.08
 164   6    -0.02  -0.00   0.00    -0.03  -0.07   0.04    -0.01  -0.04  -0.08
 165   6    -0.04  -0.01   0.00    -0.05  -0.08   0.05    -0.02  -0.04  -0.09
 166   6    -0.06   0.00   0.00    -0.07  -0.06   0.04    -0.03  -0.04  -0.08
 167   6    -0.05   0.02  -0.00    -0.06  -0.04   0.03    -0.02  -0.02  -0.05
 168   7    -0.03   0.02  -0.00    -0.03  -0.05   0.03    -0.01  -0.03  -0.06
 169   6    -0.06   0.04  -0.00    -0.07  -0.01   0.02    -0.03  -0.01  -0.03
 170   6    -0.05   0.06  -0.01    -0.06   0.01   0.00    -0.02   0.01   0.00
 171   6    -0.06   0.08  -0.01    -0.07   0.04  -0.01    -0.03   0.02   0.03
 172   6    -0.04   0.10  -0.01    -0.05   0.05  -0.03    -0.02   0.03   0.06
 173   6    -0.02   0.09  -0.01    -0.03   0.04  -0.02    -0.01   0.02   0.05
 174   7    -0.03   0.07  -0.01    -0.03   0.02  -0.00    -0.01   0.01   0.01
 175   6    -0.00   0.10  -0.01     0.00   0.05  -0.03     0.00   0.03   0.06
 176   6     0.02   0.09  -0.01     0.03   0.04  -0.02     0.01   0.02   0.05
 177   6     0.04   0.10  -0.02     0.05   0.05  -0.03     0.02   0.03   0.06
 178   6     0.06   0.08  -0.02     0.07   0.04  -0.01     0.03   0.02   0.03
 179   6     0.04   0.06  -0.01     0.06   0.01  -0.00     0.02   0.01   0.00
 180   7     0.02   0.07  -0.01     0.03   0.02  -0.01     0.01   0.01   0.01
 181   6     0.06   0.04  -0.01     0.07  -0.01   0.01     0.03  -0.01  -0.03
 182   6     0.04   0.02  -0.01     0.06  -0.04   0.03     0.02  -0.02  -0.05
 183   7     0.02   0.02  -0.01     0.03  -0.05   0.03     0.01  -0.03  -0.06
 184   1     0.02  -0.00  -0.00     0.03  -0.02   0.01     0.01  -0.01  -0.02
 185   1     0.01  -0.01  -0.00     0.02  -0.03   0.02     0.01  -0.02  -0.03
 186   1    -0.01  -0.01   0.00    -0.02  -0.03   0.02    -0.01  -0.02  -0.03
 187   1    -0.02   0.00   0.00    -0.03  -0.02   0.01    -0.01  -0.01  -0.03
 188   1    -0.02   0.01  -0.00    -0.03  -0.00   0.01    -0.01  -0.00  -0.01
 189   1    -0.02   0.03  -0.00    -0.03   0.01  -0.00    -0.01   0.01   0.01
 190   1    -0.01   0.03  -0.00    -0.02   0.02  -0.01    -0.01   0.01   0.02
 191   1     0.01   0.03  -0.01     0.02   0.02  -0.01     0.01   0.01   0.03
 192   1     0.02   0.02  -0.01     0.03   0.01  -0.00     0.01   0.01   0.01
 193   1     0.02   0.01  -0.00     0.03  -0.00   0.00     0.01  -0.00  -0.01
                     13                     14                     15
                        a                      a                      a 
 Frequencies --    11.2939                16.1667                21.0875
 Red. masses --    12.9155                12.5124                12.4421
 Frc consts  --     0.0000                 0.0000                 0.0000
 IR Inten    --     0.6367                 1.7806                 0.1461
 Raman Activ --     0.0000                 0.0000                 0.0000
 Depolar     --     0.0000                 0.0000                 0.0000
 Atom AN      X      Y      Z        X      Y      Z        X      Y      Z
   1  29    -0.00  -0.00  -0.03     0.00  -0.00  -0.04     0.00   0.01  -0.05
   2   6    -0.01  -0.01  -0.15    -0.00  -0.01  -0.10     0.01   0.01  -0.10
   3   6    -0.00  -0.01  -0.16    -0.00  -0.01  -0.09     0.01   0.02  -0.07
   4   6    -0.00  -0.01  -0.12    -0.00  -0.01  -0.07     0.00   0.01  -0.04
   5   6    -0.00  -0.01  -0.13     0.00  -0.01  -0.06     0.00   0.02  -0.02
   6   6     0.00  -0.01  -0.12     0.00  -0.01  -0.06    -0.00   0.01  -0.04
   7   6     0.00  -0.01  -0.16     0.00  -0.01  -0.09    -0.01   0.02  -0.07
   8   6     0.01  -0.01  -0.14     0.01  -0.00  -0.10    -0.01   0.01  -0.10
   9   6     0.00  -0.00  -0.09     0.00  -0.00  -0.08    -0.01   0.01  -0.08
  10   7     0.00  -0.00  -0.09     0.00  -0.00  -0.06    -0.00   0.01  -0.05
  11   6     0.01  -0.00  -0.05     0.01  -0.00  -0.06    -0.01   0.00  -0.08
  12   6     0.00   0.00   0.03     0.00   0.00  -0.01    -0.01  -0.00  -0.03
  13   6     0.00   0.00   0.09     0.00   0.00   0.03    -0.01  -0.00   0.01
  14   6     0.00   0.01   0.16     0.00   0.00   0.09    -0.01  -0.01   0.07
  15   6     0.00   0.00   0.14     0.00   0.00   0.08    -0.00  -0.01   0.07
  16   7     0.00   0.00   0.06     0.00   0.00   0.02    -0.00  -0.00   0.01
  17   6    -0.00   0.01   0.18    -0.00   0.00   0.11    -0.00  -0.01   0.10
  18   6    -0.00   0.00   0.13    -0.00   0.00   0.08     0.00  -0.01   0.07
  19   6    -0.01   0.01   0.16    -0.00   0.00   0.09     0.01  -0.01   0.07
  20   6    -0.01   0.00   0.09    -0.01   0.00   0.03     0.01  -0.00   0.01
  21   6    -0.01   0.00   0.02    -0.00   0.00  -0.01     0.01  -0.00  -0.03
  22   7    -0.00   0.00   0.06    -0.00   0.00   0.02     0.01  -0.00   0.01
  23   6    -0.01  -0.00  -0.05    -0.00  -0.00  -0.06     0.01   0.00  -0.08
  24   6    -0.00  -0.00  -0.10    -0.00  -0.00  -0.08     0.01   0.01  -0.08
[...]
 140   6     0.00   0.00  -0.00    -0.00  -0.00   0.00    -0.00   0.00  -0.00
 141   6    -0.00  -0.00   0.00     0.00   0.00  -0.00    -0.00  -0.00   0.00
 142   6    -0.03   0.00  -0.00     0.03  -0.00   0.00    -0.09   0.01  -0.00
 143   6    -0.00   0.02  -0.00     0.00  -0.02   0.00    -0.00   0.06  -0.01
 144   6     0.00   0.00  -0.00    -0.00  -0.00   0.00     0.00   0.00  -0.00
 145   7     0.00  -0.00   0.00    -0.00   0.00  -0.00     0.00  -0.00   0.00
 146   6    -0.00   0.00  -0.00    -0.00  -0.00   0.00    -0.00   0.00  -0.00
 147   6     0.00  -0.00   0.00     0.00  -0.00   0.00    -0.00   0.00  -0.00
 148   7     0.00   0.00   0.00     0.00   0.00  -0.00    -0.00  -0.00   0.00
 149   1     0.00   0.04  -0.00     0.02   0.20  -0.02    -0.01  -0.08   0.01
 150   1     0.06   0.01  -0.00     0.29   0.03  -0.00    -0.11  -0.01   0.00
 151   1     0.05  -0.01   0.00    -0.12   0.01  -0.00    -0.02   0.00  -0.00
 152   1     0.00  -0.04   0.00    -0.01   0.09  -0.01    -0.00   0.01  -0.00
 153   1     0.00  -0.00   0.00    -0.00   0.00  -0.00    -0.00   0.00  -0.00
 154   1    -0.01  -0.14   0.02     0.01   0.11  -0.01     0.01   0.12  -0.01
 155   1    -0.21  -0.02   0.00     0.16   0.02  -0.00     0.18   0.02  -0.00
 156   1     0.11  -0.01   0.00    -0.08   0.01  -0.00     0.29  -0.03   0.00
 157   1     0.01  -0.07   0.01    -0.01   0.06  -0.01     0.02  -0.20   0.02
 158   1    -0.00  -0.00   0.00    -0.00   0.01  -0.00    -0.00  -0.01   0.00
 159  29     0.00  -0.00   0.00    -0.00   0.00  -0.00    -0.00  -0.00   0.00
 160   6     0.00   0.06  -0.01    -0.00  -0.01   0.00     0.00   0.07  -0.01
 161   6     0.09   0.01  -0.00    -0.01  -0.00   0.00     0.11   0.01  -0.00
 162   6     0.00  -0.00   0.00    -0.00   0.00  -0.00     0.00  -0.00   0.00
 163   6    -0.00   0.00  -0.00     0.00  -0.00   0.00     0.00   0.00  -0.00
 164   6    -0.00  -0.00   0.00     0.00   0.00  -0.00     0.00   0.00  -0.00
 165   6    -0.11   0.01  -0.00     0.07  -0.01   0.00     0.07  -0.01   0.00
 166   6    -0.00   0.08  -0.01     0.00  -0.05   0.01     0.00  -0.05   0.01
 167   6     0.00   0.00  -0.00    -0.00  -0.00   0.00    -0.00  -0.00   0.00
 168   7     0.00  -0.00   0.00    -0.00   0.00  -0.00    -0.00   0.00  -0.00
 169   6    -0.00   0.00  -0.00     0.00  -0.00   0.00     0.00  -0.00   0.00
 170   6    -0.00   0.00  -0.00     0.00  -0.00   0.00    -0.00   0.00  -0.00
 171   6     0.00   0.04  -0.00    -0.00  -0.01   0.00     0.00   0.04  -0.00
 172   6     0.05   0.00  -0.00    -0.01  -0.00   0.00     0.05   0.00  -0.00
 173   6     0.00  -0.00   0.00    -0.00   0.00  -0.00     0.00  -0.00   0.00
 174   7    -0.00  -0.00   0.00     0.00   0.00  -0.00    -0.00  -0.00   0.00
 175   6    -0.00   0.00  -0.00     0.00  -0.00   0.00     0.00   0.00  -0.00
 176   6    -0.00  -0.00   0.00     0.00   0.00  -0.00     0.00   0.00  -0.00
 177   6    -0.10   0.01  -0.00     0.02  -0.00   0.00     0.01  -0.00   0.00
 178   6    -0.00   0.08  -0.01     0.00  -0.02   0.00     0.00  -0.01   0.00
 179   6     0.00   0.00  -0.00    -0.00  -0.00   0.00    -0.00  -0.00   0.00
 180   7     0.00  -0.00   0.00    -0.00   0.00  -0.00    -0.00   0.00  -0.00
 181   6    -0.00   0.00  -0.00     0.00  -0.00   0.00     0.00   0.00  -0.00
 182   6    -0.00   0.00  -0.00     0.00  -0.00   0.00    -0.00   0.00  -0.00
 183   7    -0.00  -0.00   0.00     0.00   0.00  -0.00    -0.00  -0.00   0.00
 184   1    -0.02  -0.20   0.02     0.00   0.02  -0.00    -0.02  -0.23   0.03
 185   1    -0.29  -0.03   0.00     0.03   0.00  -0.00    -0.34  -0.04   0.01
 186   1     0.37  -0.04   0.01    -0.22   0.03  -0.00    -0.22   0.03  -0.00
 187   1     0.02  -0.26   0.03    -0.01   0.15  -0.02    -0.01   0.14  -0.02
 188   1    -0.00  -0.01   0.00     0.00   0.00  -0.00     0.00   0.00  -0.00
 189   1    -0.01  -0.12   0.01     0.00   0.03  -0.00    -0.01  -0.11   0.01
 190   1    -0.16  -0.02   0.00     0.04   0.00  -0.00    -0.17  -0.02   0.00
 191   1     0.33  -0.04   0.00    -0.08   0.01  -0.00    -0.05   0.01  -0.00
 192   1     0.02  -0.24   0.03    -0.01   0.06  -0.01    -0.00   0.03  -0.00
 193   1    -0.00  -0.01   0.00     0.00   0.00  -0.00     0.00  -0.00   0.00
                    571                    572                    573
                        a                      a                      a 
 Frequencies --  3167.2668              3167.2909              3167.4996
 Red. masses --     1.9688                 1.9698                 1.9693
 Frc consts  --     0.0000                 0.0000                 0.0000
 IR Inten    --  1718.8297             32134.7762              3063.3158
 Raman Activ --     0.0000                 0.0000                 0.0000
 Depolar     --     0.0000                 0.0000                 0.0000
 Atom AN      X      Y      Z        X      Y      Z        X      Y      Z
   1  29     0.00  -0.00   0.00    -0.00   0.00  -0.00     0.00  -0.00   0.00
   2   6    -0.01   0.11  -0.00     0.00  -0.04   0.00    -0.00   0.05  -0.00
   3   6    -0.15   0.01  -0.00     0.05  -0.00   0.00    -0.08   0.01  -0.00
   4   6    -0.00  -0.01   0.00     0.00   0.00  -0.00    -0.00  -0.00   0.00
   5   6    -0.00   0.00  -0.00     0.00  -0.00   0.00    -0.00   0.00  -0.00
   6   6    -0.00   0.00  -0.00     0.00  -0.00   0.00    -0.00   0.00  -0.00
   7   6    -0.06  -0.01  -0.00     0.02   0.00   0.00    -0.05  -0.00  -0.00
   8   6    -0.00  -0.04   0.00     0.00   0.02  -0.00    -0.00  -0.03   0.00
   9   6     0.00  -0.00   0.00    -0.00   0.00  -0.00     0.00  -0.00   0.00
  10   7     0.00   0.00  -0.00    -0.00  -0.00  -0.00     0.00   0.00  -0.00
  11   6    -0.00  -0.00   0.00     0.00   0.00  -0.00    -0.00  -0.00   0.00
  12   6    -0.00  -0.00   0.00    -0.00  -0.00  -0.00    -0.00  -0.00   0.00
  13   6     0.00  -0.00   0.00    -0.00   0.00  -0.00     0.00  -0.00   0.00
  14   6     0.00  -0.00   0.00     0.00   0.00   0.00     0.00  -0.00   0.00
  15   6     0.00  -0.00   0.00     0.00   0.00  -0.00     0.00   0.00   0.00
  16   7     0.00  -0.00   0.00    -0.00   0.00  -0.00    -0.00   0.00  -0.00
  17   6    -0.00   0.00  -0.00     0.00  -0.00   0.00     0.00   0.00   0.00
  18   6     0.00  -0.00   0.00    -0.00  -0.00  -0.00     0.00  -0.00   0.00
  19   6     0.00   0.00   0.00    -0.00  -0.00  -0.00     0.00   0.00   0.00
  20   6     0.00   0.00  -0.00    -0.00  -0.00   0.00     0.00   0.00  -0.00
  21   6    -0.00  -0.00  -0.00    -0.00   0.00   0.00    -0.00   0.00  -0.00
  22   7     0.00   0.00   0.00    -0.00  -0.00  -0.00    -0.00  -0.00   0.00
  23   6    -0.00   0.00  -0.00     0.00  -0.00   0.00    -0.00   0.00  -0.00
  24   6     0.00   0.00   0.00    -0.00  -0.00  -0.00     0.00   0.00   0.00
  25   7     0.00  -0.00   0.00    -0.00   0.00  -0.00     0.00  -0.00   0.00
  26   1     0.04  -0.33   0.00    -0.01   0.12  -0.00     0.02  -0.17   0.00
  27   1     0.49  -0.05   0.00    -0.18   0.02  -0.00     0.25  -0.03   0.00
  28   1     0.19   0.02   0.00    -0.08  -0.01  -0.00     0.15   0.02   0.00
  29   1     0.01   0.13  -0.00    -0.00  -0.05   0.00     0.01   0.10  -0.00
  30   1    -0.00   0.00  -0.00     0.00  -0.00   0.00    -0.00   0.00  -0.00
  31   1    -0.00   0.00  -0.00     0.00  -0.00   0.00    -0.00   0.01  -0.00
  32   1    -0.00   0.00  -0.00    -0.00   0.00  -0.00    -0.01   0.00  -0.00
  33   1     0.00   0.00   0.00    -0.00  -0.00  -0.00    -0.00  -0.00  -0.00
  34   1    -0.01  -0.00  -0.00     0.00   0.00   0.00    -0.01  -0.00  -0.00
  35   1    -0.00  -0.01   0.00     0.00   0.00  -0.00    -0.00  -0.01   0.00
  36   1    -0.00  -0.01   0.00     0.00   0.00  -0.00    -0.00  -0.00   0.00
  37  29    -0.00   0.00   0.00    -0.00   0.00   0.00    -0.00   0.00   0.00
  38   6     0.00  -0.01  -0.00     0.00  -0.07  -0.01     0.00  -0.04  -0.01
  39   6     0.01  -0.00  -0.00     0.10  -0.01  -0.00     0.05  -0.00  -0.00
  40   6     0.00   0.00   0.00     0.00   0.00   0.00     0.00   0.00   0.00
  41   6     0.00  -0.00  -0.00     0.00  -0.00  -0.00     0.00  -0.00  -0.00
  42   6     0.00  -0.00  -0.00     0.00  -0.00  -0.00     0.00  -0.00  -0.00
  43   6     0.01   0.00   0.00     0.07   0.01   0.00     0.04   0.00   0.00
  44   6     0.00   0.01   0.00     0.00   0.05   0.01     0.00   0.03   0.00
  45   6    -0.00   0.00   0.00    -0.00   0.00   0.00    -0.00   0.00   0.00
  46   7    -0.00  -0.00  -0.00    -0.00  -0.00  -0.00    -0.00  -0.00  -0.00
  47   6     0.00   0.00   0.00     0.00   0.00   0.00     0.00   0.00   0.00
  48   6     0.00   0.00  -0.00     0.00   0.00   0.00     0.00   0.00   0.00
  49   6    -0.00   0.00   0.00    -0.00   0.00   0.00    -0.00   0.00   0.00
  50   6    -0.00   0.00   0.00    -0.00   0.00   0.00    -0.00   0.00   0.00
  51   6    -0.00  -0.00  -0.00    -0.00  -0.00  -0.00    -0.00  -0.00  -0.00
  52   7    -0.00   0.00   0.00    -0.00   0.00   0.00     0.00  -0.00  -0.00
  53   6    -0.00  -0.00   0.00    -0.00  -0.00  -0.00    -0.00  -0.00   0.00
  54   6    -0.00   0.00   0.00    -0.00   0.00   0.00    -0.00   0.00   0.00
  55   6    -0.00  -0.00  -0.00    -0.00  -0.00  -0.00    -0.00  -0.00  -0.00
  56   6    -0.00  -0.00  -0.00    -0.00  -0.00  -0.00    -0.00  -0.00  -0.00
  57   6     0.00  -0.00   0.00     0.00  -0.00  -0.00     0.00  -0.00  -0.00
  58   7    -0.00  -0.00  -0.00    -0.00  -0.00  -0.00     0.00   0.00   0.00
  59   6     0.00  -0.00  -0.00     0.00  -0.00  -0.00     0.00  -0.00  -0.00
  60   6    -0.00  -0.00  -0.00    -0.00  -0.00  -0.00    -0.00  -0.00  -0.00
  61   7    -0.00   0.00   0.00    -0.00   0.00   0.00    -0.00   0.00   0.00
  62   1    -0.00   0.03   0.01    -0.03   0.23   0.04    -0.01   0.11   0.02
  63   1    -0.05   0.00   0.00    -0.34   0.04   0.01    -0.17   0.02   0.00
  64   1    -0.03  -0.00  -0.00    -0.21  -0.03  -0.00    -0.12  -0.01  -0.00
  65   1    -0.00  -0.02  -0.00    -0.01  -0.14  -0.03    -0.01  -0.08  -0.02
  66   1     0.00  -0.00  -0.00     0.00  -0.00  -0.00     0.00  -0.00  -0.00
  67   1     0.00  -0.00  -0.00     0.00  -0.01  -0.00     0.00  -0.01  -0.00
  68   1     0.00  -0.00  -0.00     0.01  -0.00  -0.00     0.01  -0.00  -0.00
  69   1     0.00  -0.00  -0.00     0.00   0.00  -0.00     0.00   0.00  -0.00
  70   1     0.00   0.00   0.00     0.01   0.00   0.00     0.01   0.00   0.00
  71   1     0.00   0.00   0.00     0.00   0.01   0.00     0.00   0.01   0.00
  72   1     0.00   0.00   0.00     0.00   0.00   0.00     0.00   0.00   0.00
  73   6     0.00   0.00  -0.00    -0.00  -0.00   0.00     0.00   0.00  -0.00
  74   6    -0.00  -0.00   0.00     0.00   0.00  -0.00    -0.00  -0.00   0.00
  75   6     0.00  -0.00   0.00    -0.00   0.00  -0.00     0.00  -0.00   0.00
  76   6    -0.00   0.00  -0.00     0.00  -0.00   0.00    -0.00   0.00  -0.00
  77   6    -0.00   0.00  -0.00    -0.00   0.00  -0.00     0.00  -0.00   0.00
  78   6     0.00  -0.00   0.00     0.00  -0.00   0.00    -0.00   0.00  -0.00
  79   6    -0.00  -0.00   0.00    -0.00  -0.00   0.00     0.00  -0.00  -0.00
  80   6     0.00   0.00  -0.00     0.00   0.00  -0.00    -0.00   0.00  -0.00
  81   6    -0.00   0.00  -0.00     0.00   0.00  -0.00    -0.00   0.00  -0.00
  82   6     0.00  -0.00   0.00    -0.00  -0.00   0.00    -0.00  -0.00   0.00
  83   6    -0.00  -0.00   0.00     0.00  -0.00   0.00     0.00  -0.00   0.00
  84   6    -0.00   0.00  -0.00    -0.00  -0.00  -0.00    -0.00  -0.00  -0.00
  85   6     0.00   0.00  -0.00     0.00  -0.00   0.00     0.00  -0.00  -0.00
  86   6    -0.00   0.00   0.00    -0.00   0.00   0.00    -0.00   0.00   0.00
  87   6     0.00   0.00   0.00     0.00   0.00   0.00     0.00   0.00   0.00
  88   6    -0.00  -0.00  -0.00    -0.00  -0.00  -0.00    -0.00  -0.00  -0.00
  89  29    -0.00  -0.00   0.00    -0.00   0.00  -0.00     0.00  -0.00   0.00
  90   6     0.00   0.06  -0.01    -0.00  -0.04   0.00     0.00   0.06  -0.01
  91   6     0.08   0.01  -0.00    -0.06  -0.00   0.00     0.08   0.01  -0.00
  92   6     0.00  -0.00   0.00    -0.00   0.00  -0.00     0.00  -0.00   0.00
  93   6     0.00   0.00  -0.00    -0.00  -0.00   0.00     0.00   0.00  -0.00
  94   6     0.00   0.00  -0.00    -0.00  -0.00   0.00     0.00   0.00  -0.00
  95   6     0.02  -0.00   0.00    -0.04   0.00  -0.00     0.07  -0.01   0.00
  96   6     0.00  -0.01   0.00    -0.00   0.03  -0.00     0.00  -0.05   0.01
  97   6    -0.00  -0.00   0.00     0.00   0.00  -0.00    -0.00  -0.00   0.00
  98   7    -0.00   0.00  -0.00    -0.00   0.00  -0.00    -0.00   0.00  -0.00
  99   6     0.00   0.00  -0.00     0.00   0.00  -0.00    -0.00  -0.00   0.00
 100   6    -0.00   0.00  -0.00    -0.00   0.00  -0.00     0.00  -0.00   0.00
 101   6     0.00   0.09  -0.01     0.00   0.05  -0.01    -0.00  -0.07   0.01
 102   6     0.12   0.01  -0.00     0.07   0.01  -0.00    -0.10  -0.01   0.00
 103   6     0.00  -0.00   0.00     0.00  -0.00   0.00    -0.00   0.00  -0.00
 104   7    -0.00  -0.00   0.00    -0.00  -0.00   0.00     0.00   0.00  -0.00
 105   6     0.00   0.00  -0.00     0.00   0.00  -0.00    -0.00  -0.00   0.00
 106   6     0.00   0.00  -0.00     0.00   0.00  -0.00    -0.00  -0.00   0.00
 107   6     0.06  -0.01   0.00     0.06  -0.00   0.00    -0.09   0.01  -0.00
 108   6     0.00  -0.04   0.00     0.00  -0.04   0.00    -0.00   0.06  -0.01
 109   6    -0.00  -0.00   0.00    -0.00  -0.00   0.00     0.00   0.00  -0.00
 110   7    -0.00   0.00  -0.00    -0.00   0.00  -0.00     0.00  -0.00   0.00
 111   6     0.00   0.00  -0.00    -0.00  -0.00   0.00    -0.00   0.00  -0.00
 112   6    -0.00   0.00  -0.00     0.00  -0.00   0.00    -0.00   0.00  -0.00
 113   7    -0.00  -0.00   0.00     0.00   0.00   0.00    -0.00  -0.00   0.00
 114   1    -0.02  -0.18   0.02     0.01   0.12  -0.01    -0.02  -0.18   0.02
 115   1    -0.27  -0.03   0.00     0.18   0.02  -0.00    -0.26  -0.03   0.00
 116   1    -0.07   0.01  -0.00     0.13  -0.02   0.00    -0.22   0.03  -0.00
 117   1    -0.00   0.04  -0.00     0.01  -0.09   0.01    -0.02   0.15  -0.02
 118   1     0.00  -0.00   0.00     0.00  -0.00   0.00    -0.00   0.01  -0.00
 119   1    -0.03  -0.27   0.03    -0.02  -0.15   0.02     0.02   0.22  -0.03
 120   1    -0.41  -0.05   0.01    -0.21  -0.02   0.00     0.33   0.04  -0.01
 121   1    -0.20   0.02  -0.00    -0.18   0.02  -0.00     0.29  -0.03   0.00
 122   1    -0.01   0.13  -0.01    -0.01   0.12  -0.01     0.02  -0.20   0.02
 123   1     0.00  -0.00   0.00     0.00   0.00  -0.00    -0.00  -0.01   0.00
 124  29     0.00  -0.00   0.00     0.00  -0.00  -0.00    -0.00  -0.00  -0.00
 125   6    -0.00  -0.03   0.00    -0.00  -0.00   0.00     0.00   0.04  -0.00
 126   6    -0.04  -0.00   0.00    -0.01  -0.00   0.00     0.05   0.00  -0.00
 127   6    -0.00   0.00  -0.00    -0.00   0.00  -0.00     0.00  -0.00   0.00
 128   6    -0.00   0.00  -0.00    -0.00   0.00  -0.00     0.00   0.00  -0.00
 129   6    -0.00  -0.00   0.00    -0.00  -0.00   0.00     0.00   0.00  -0.00
 130   6    -0.06   0.00  -0.00    -0.01   0.00  -0.00     0.05  -0.00   0.00
 131   6    -0.00   0.04  -0.00    -0.00   0.01  -0.00     0.00  -0.04   0.00
 132   6     0.00   0.00  -0.00     0.00   0.00  -0.00    -0.00  -0.00   0.00
 133   7     0.00  -0.00   0.00     0.00  -0.00   0.00    -0.00   0.00  -0.00
 134   6    -0.00   0.00  -0.00    -0.00  -0.00   0.00     0.00  -0.00   0.00
 135   6    -0.00   0.00  -0.00     0.00  -0.00   0.00     0.00  -0.00   0.00
 136   6     0.00   0.01  -0.00    -0.00  -0.03   0.00    -0.00  -0.03   0.00
 137   6     0.01   0.00  -0.00    -0.05  -0.00   0.00    -0.04  -0.00   0.00
 138   6     0.00  -0.00   0.00    -0.00   0.00  -0.00    -0.00   0.00  -0.00
 139   7     0.00   0.00  -0.00     0.00   0.00  -0.00     0.00   0.00  -0.00
 140   6    -0.00   0.00  -0.00    -0.00   0.00  -0.00    -0.00   0.00  -0.00
 141   6     0.00   0.00  -0.00    -0.00  -0.00   0.00    -0.00  -0.00   0.00
 142   6     0.00  -0.00   0.00    -0.06   0.00  -0.00    -0.04   0.00  -0.00
 143   6     0.00  -0.00   0.00    -0.00   0.04  -0.00    -0.00   0.03  -0.00
 144   6    -0.00   0.00  -0.00     0.00   0.00  -0.00     0.00   0.00  -0.00
 145   7     0.00  -0.00   0.00     0.00  -0.00   0.00     0.00  -0.00   0.00
 146   6    -0.00  -0.00   0.00    -0.00   0.00  -0.00     0.00   0.00  -0.00
 147   6     0.00  -0.00   0.00     0.00  -0.00   0.00    -0.00   0.00  -0.00
 148   7     0.00   0.00  -0.00     0.00   0.00  -0.00    -0.00  -0.00   0.00
 149   1     0.01   0.09  -0.01     0.00   0.01  -0.00    -0.01  -0.12   0.01
 150   1     0.13   0.02  -0.00     0.02   0.00  -0.00    -0.18  -0.02   0.00
 151   1     0.19  -0.02   0.00     0.03  -0.00   0.00    -0.17   0.02  -0.00
 152   1     0.01  -0.13   0.01     0.00  -0.02   0.00    -0.01   0.11  -0.01
 153   1    -0.00  -0.00   0.00    -0.00   0.00  -0.00     0.00   0.00  -0.00
 154   1    -0.00  -0.02   0.00     0.01   0.11  -0.01     0.01   0.09  -0.01
 155   1    -0.03  -0.00   0.00     0.16   0.02  -0.00     0.13   0.01  -0.00
 156   1    -0.01   0.00  -0.00     0.18  -0.02   0.00     0.14  -0.02   0.00
 157   1    -0.00   0.01  -0.00     0.01  -0.12   0.02     0.01  -0.10   0.01
 158   1    -0.00   0.00  -0.00    -0.00  -0.00   0.00     0.00  -0.00   0.00
 159  29     0.00  -0.00   0.00    -0.00   0.00  -0.00    -0.00   0.00   0.00
 160   6     0.00   0.00  -0.00     0.00   0.06  -0.01     0.00   0.03  -0.00
 161   6     0.00   0.00  -0.00     0.08   0.01  -0.00     0.05   0.00  -0.00
 162   6     0.00  -0.00   0.00     0.00  -0.00   0.00     0.00  -0.00   0.00
 163   6     0.00   0.00  -0.00     0.00   0.00   0.00     0.00   0.00  -0.00
 164   6    -0.00  -0.00   0.00     0.00   0.00  -0.00     0.00   0.00  -0.00
 165   6    -0.00   0.00  -0.00     0.08  -0.01   0.00     0.05  -0.00   0.00
 166   6    -0.00   0.00  -0.00     0.00  -0.06   0.01     0.00  -0.03   0.00
 167   6     0.00   0.00  -0.00    -0.00  -0.00   0.00    -0.00  -0.00   0.00
 168   7     0.00  -0.00   0.00    -0.00   0.00  -0.00    -0.00   0.00  -0.00
 169   6    -0.00  -0.00   0.00     0.00  -0.00   0.00     0.00  -0.00   0.00
 170   6     0.00  -0.00   0.00     0.00  -0.00   0.00     0.00  -0.00   0.00
 171   6    -0.00  -0.00   0.00    -0.00  -0.05   0.01    -0.00  -0.03   0.00
 172   6    -0.01  -0.00   0.00    -0.07  -0.01   0.00    -0.04  -0.00   0.00
 173   6    -0.00   0.00  -0.00    -0.00   0.00  -0.00    -0.00   0.00  -0.00
 174   7     0.00   0.00  -0.00     0.00   0.00  -0.00     0.00   0.00  -0.00
 175   6    -0.00   0.00  -0.00    -0.00  -0.00   0.00    -0.00  -0.00   0.00
 176   6    -0.00  -0.00   0.00    -0.00  -0.00   0.00    -0.00  -0.00   0.00
 177   6    -0.01   0.00  -0.00    -0.06   0.00  -0.00    -0.04   0.00  -0.00
 178   6    -0.00   0.01  -0.00    -0.00   0.04  -0.00    -0.00   0.03  -0.00
 179   6     0.00   0.00  -0.00     0.00   0.00  -0.00     0.00   0.00  -0.00
 180   7     0.00  -0.00   0.00     0.00  -0.00   0.00     0.00  -0.00   0.00
 181   6    -0.00   0.00  -0.00     0.00   0.00  -0.00     0.00   0.00  -0.00
 182   6    -0.00   0.00  -0.00    -0.00   0.00  -0.00    -0.00   0.00  -0.00
 183   7    -0.00  -0.00   0.00    -0.00  -0.00   0.00    -0.00  -0.00   0.00
 184   1    -0.00  -0.01   0.00    -0.02  -0.18   0.02    -0.01  -0.11   0.01
 185   1    -0.01  -0.00   0.00    -0.27  -0.03   0.00    -0.16  -0.02   0.00
 186   1     0.01  -0.00   0.00    -0.27   0.03  -0.00    -0.15   0.02  -0.00
 187   1     0.00  -0.00   0.00    -0.02   0.18  -0.02    -0.01   0.11  -0.01
 188   1    -0.00   0.00  -0.00     0.00   0.01  -0.00     0.00   0.00  -0.00
 189   1     0.00   0.01  -0.00     0.02   0.15  -0.02     0.01   0.09  -0.01
 190   1     0.02   0.00  -0.00     0.22   0.02  -0.00     0.13   0.01  -0.00
 191   1     0.02  -0.00   0.00     0.19  -0.02   0.00     0.12  -0.01   0.00
 192   1     0.00  -0.02   0.00     0.01  -0.13   0.01     0.01  -0.09   0.01
 193   1    -0.00  -0.00   0.00     0.00  -0.01   0.00     0.00  -0.00   0.00
