193
 energy: -351.454994356657 gnorm: 0.839986495275 xtb: 6.4.1 (bd6e46d)
Cu       27.54362900000000    0.04105400000000   -0.01229300000000
C        29.87262000000000   -3.10573900000000    1.31039600000000
C        30.78872700000001   -2.16153200000000    1.26011400000000
C        30.37754800000000   -1.10762800000000    0.33882200000000
C        30.99641800000000    0.01671800000000   -0.00758800000000
C        30.29237600000000    1.23666600000000   -0.37169300000000
C        30.62048700000000    2.19672100000000   -1.21916700000000
C        29.58570700000000    3.21300700000000   -1.23606400000000
C        28.64943900000000    2.83654500000000   -0.38917300000000
N        29.05142900000000    1.60353400000000    0.17464400000000
C        27.38836500000000    3.48154400000000   -0.01002100000000
C        26.29314700000000    2.84676200000000    0.34073900000000
C        25.21952200000000    3.16471700000000    1.30976700000000
C        24.38195900000000    2.16796400000000    1.23260100000000
C        24.82025600000000    1.16428000000000    0.25214900000000
N        25.92519400000000    1.60313300000000   -0.23214300000000
C        24.20942200000000   -0.08899100000000   -0.16139900000000
C        24.87358200000000   -1.19349700000000   -0.41582400000000
C        24.49973300000000   -2.25643900000000   -1.37335100000000
C        25.44848100000000   -3.15019400000000   -1.28433200000000
C        26.43420400000000   -2.71274400000000   -0.30145400000000
N        26.08115900000000   -1.56693900000000    0.19534300000000
C        27.66509200000000   -3.36881500000000    0.14426700000000
C        28.78813400000000   -2.72295400000000    0.41138800000000
N        29.11673400000000   -1.47551200000000   -0.18701500000000
H        29.93288200000000   -4.01552000000000    1.92794300000000
H        31.70505500000000   -2.20148100000000    1.83816200000000
H        31.54785200000000    2.21351700000000   -1.82031000000000
H        29.60260600000000    4.11769500000000   -1.84868600000000
H        27.34064200000000    4.57634700000000   -0.01379800000000
H        25.16670000000000    4.04344200000000    1.93476000000000
H        23.47032900000000    2.13229400000000    1.84992500000000
H        23.11117100000000   -0.08608000000000   -0.26067000000000
H        23.63087800000000   -2.30890400000000   -2.02230100000000
H        25.44563500000000   -4.06650300000000   -1.88309100000000
H        27.62961000000000   -4.46461600000000    0.25619200000000
Cu       84.12936100000000   -0.00632200000000   -0.01672600000000
C        81.80037000000000    2.84047000000000    1.86677900000000
C        80.88426300000000    1.92198000000000    1.64220500000000
C        81.29544199999999    1.05728300000000    0.54139100000000
C        80.67657199999999    0.01671800000000   -0.00758800000000
C        81.38061400000001   -1.11450700000000   -0.59169100000000
C        81.05250300000000   -1.90067800000000   -1.60255700000000
C        82.08728300000000   -2.89618800000000   -1.80769800000000
C        83.02355100000000   -2.68337100000000   -0.90566800000000
N        82.62156100000000   -1.57636000000000   -0.12289600000000
C        84.28462500000001   -3.38751200000000   -0.65275400000000
C        85.37984299999999   -2.82882000000000   -0.19032100000000
C        86.45346800000000   -3.32102500000000    0.70290100000000
C        87.29103100000002   -2.32725800000000    0.81198600000000
C        86.85273400000001   -1.15910900000000    0.03475100000000
N        85.74779500000000   -1.50050100000000   -0.52254800000000
C        87.46356800000000    0.14912600000000   -0.13911900000000
C        86.79940800000001    1.28165900000000   -0.18422500000000
C        87.17325700000001    2.50378500000000   -0.92794000000000
C        86.22450900000000    3.36551200000000   -0.67466100000000
C        85.23878499999999    2.75331800000000    0.21000200000000
N        85.59183100000000    1.53523900000000    0.48561200000000
C        84.00789800000000    3.31531200000000    0.76969700000000
C        82.88485600000000    2.63110700000000    0.91236400000000
N        82.55625600000000    1.51633200000000    0.09293000000000
H        81.74010800000001    3.61989400000000    2.64238300000000
H        79.96793500000000    1.85400000000000    2.21763100000000
H        80.12513800000001   -1.80566200000000   -2.19638200000000
H        82.07038400000000   -3.67152200000000   -2.57751800000000
H        84.33234800000000   -4.46261000000000   -0.85956800000000
H        86.50629000000001   -4.30044200000000    1.15402800000000
H        88.20266100000001   -2.40673000000000    1.42521200000000
H        88.56181900000000    0.16468200000000   -0.23720600000000
H        88.04211200000000    2.67572900000000   -1.55589200000000
H        86.22735500000000    4.37699300000000   -1.09303900000000
H        84.04338000000000    4.37132900000000    1.08296600000000
C        33.89112200000001    0.01468300000000   -0.00870000000000
C        35.09909900000000    0.02213700000000   -0.00700500000000
C        36.51786700000000    0.02283400000000   -0.00186800000000
C        37.73338300000001    0.01468300000000   -0.00870000000000
C        47.24127300000000    0.01468300000000   -0.00870000000000
C        48.44924900000000    0.02213700000000   -0.00700500000000
C        49.86801700000001    0.02283400000000   -0.00186800000000
C        51.08353400000000    0.01468300000000   -0.00870000000000
C        60.59142300000000    0.01468300000000   -0.00870000000000
C        61.79940000000001    0.02213700000000   -0.00700500000000
C        63.21816800000000    0.02283400000000   -0.00186800000000
C        64.43368400000000    0.01468300000000   -0.00870000000000
C        73.94157300000001    0.01468300000000   -0.00870000000000
C        75.14955000000000    0.02213700000000   -0.00700500000000
C        76.56831800000002    0.02283400000000   -0.00186800000000
C        77.78383500000000    0.01468300000000   -0.00870000000000
Cu       42.52196400000000    0.03481800000000    0.00343900000000
C        40.24215400000000   -3.22662900000000   -0.90622700000000
C        39.28594400000001   -2.32727900000000   -1.00825300000000
C        39.67831900000000   -1.16497400000000   -0.20573700000000
C        39.04320200000000   -0.01370100000000    0.00652900000000
C        39.72865900000001    1.26089800000000    0.23275800000000
C        39.39336900000000    2.33949800000000    0.93699800000000
C        40.41791000000000    3.35881500000000    0.84641700000000
C        41.36850700000000    2.86189000000000    0.07305200000000
N        40.99151300000000    1.54528500000000   -0.34309100000000
C        42.61564700000001    3.47359200000000   -0.34381300000000
C        43.71719900000000    2.80633500000000   -0.67558500000000
C        44.71074500000000    3.05831900000000   -1.70975500000000
C        45.60462800000001    2.09746000000000   -1.60827100000000
C        45.22493000000000    1.18557600000000   -0.50429400000000
N        44.13001500000000    1.63489500000000    0.00307300000000
C        45.88213700000000   -0.01370100000000    0.00652900000000
C        45.25872600000000   -1.08288300000000    0.46804500000000
C        45.63743800000000   -2.01499900000000    1.54352100000000
C        44.69677000000000   -2.92914500000000    1.62938700000000
C        43.68846800000000   -2.63336600000000    0.63196000000000
N        44.02624300000001   -1.57998800000000   -0.01733500000000
C        42.43607500000000   -3.34037300000000    0.30076700000000
C        41.32219800000000   -2.74367600000000   -0.04657500000000
N        40.94008600000000   -1.46091900000000    0.37110800000000
H        40.24249800000000   -4.21770300000000   -1.39746100000000
H        38.37741000000000   -2.44897300000000   -1.58940100000000
H        38.46851700000000    2.45785000000000    1.51392400000000
H        40.44520500000000    4.34797900000000    1.30306700000000
H        42.70158700000000    4.57097000000000   -0.40583600000000
H        44.74341700000000    3.86453500000000   -2.43657900000000
H        46.49769000000000    1.98449200000000   -2.24204500000000
H        46.55218900000001   -1.94059200000000    2.15369100000000
H        44.71581600000000   -3.74275300000000    2.33765400000000
H        42.47456000000000   -4.44033200000000    0.35980300000000
Cu       55.87211500000000    0.03481800000000    0.00343900000000
C        53.59230400000000   -3.22662900000000   -0.90622700000000
C        52.63609500000000   -2.32727900000000   -1.00825300000000
C        53.02846900000000   -1.16497400000000   -0.20573700000000
C        52.39335300000000   -0.01370100000000    0.00652900000000
C        53.07881000000000    1.26089800000000    0.23275800000000
C        52.74351900000001    2.33949800000000    0.93699800000000
C        53.76806100000000    3.35881500000000    0.84641700000000
C        54.71865800000000    2.86189000000000    0.07305200000000
N        54.34166400000000    1.54528500000000   -0.34309100000000
C        55.96579700000000    3.47359200000000   -0.34381300000000
C        57.06734900000000    2.80633500000000   -0.67558500000000
C        58.06089600000000    3.05831900000000   -1.70975500000000
C        58.95477900000000    2.09746000000000   -1.60827100000000
C        58.57508100000000    1.18557600000000   -0.50429400000000
N        57.48016500000000    1.63489500000000    0.00307300000000
C        59.23228800000000   -0.01370100000000    0.00652900000000
C        58.60887600000000   -1.08288300000000    0.46804500000000
C        58.98758900000000   -2.01499900000000    1.54352100000000
C        58.04692000000001   -2.92914500000000    1.62938700000000
C        57.03861900000000   -2.63336600000000    0.63196000000000
N        57.37639400000000   -1.57998800000000   -0.01733500000000
C        55.78622600000000   -3.34037300000000    0.30076700000000
C        54.67234900000000   -2.74367600000000   -0.04657500000000
N        54.29023700000000   -1.46091900000000    0.37110800000000
H        53.59264900000001   -4.21770300000000   -1.39746100000000
H        51.72756000000000   -2.44897300000000   -1.58940100000000
H        51.81866700000000    2.45785000000000    1.51392400000000
H        53.79535500000000    4.34797900000000    1.30306700000000
H        56.05173700000000    4.57097000000000   -0.40583600000000
H        58.09356800000000    3.86453500000000   -2.43657900000000
H        59.84784000000000    1.98449200000000   -2.24204500000000
H        59.90233900000000   -1.94059200000000    2.15369100000000
H        58.06596700000000   -3.74275300000000    2.33765400000000
H        55.82471000000000   -4.44033200000000    0.35980300000000
Cu       69.22226499999999    0.03481800000000    0.00343900000000
C        66.94245500000000   -3.22662900000000   -0.90622700000000
C        65.98624500000000   -2.32727900000000   -1.00825300000000
C        66.37861900000000   -1.16497400000000   -0.20573700000000
C        65.74350300000000   -0.01370100000000    0.00652900000000
C        66.42896000000000    1.26089800000000    0.23275800000000
C        66.09367000000000    2.33949800000000    0.93699800000000
C        67.11821100000000    3.35881500000000    0.84641700000000
C        68.06880800000000    2.86189000000000    0.07305200000000
N        67.69181399999999    1.54528500000000   -0.34309100000000
C        69.31594800000001    3.47359200000000   -0.34381300000000
C        70.41750000000000    2.80633500000000   -0.67558500000000
C        71.41104600000000    3.05831900000000   -1.70975500000000
C        72.30492900000002    2.09746000000000   -1.60827100000000
C        71.92523100000000    1.18557600000000   -0.50429400000000
N        70.83031600000000    1.63489500000000    0.00307300000000
C        72.58243800000000   -0.01370100000000    0.00652900000000
C        71.95902700000002   -1.08288300000000    0.46804500000000
C        72.33773900000001   -2.01499900000000    1.54352100000000
C        71.39707100000001   -2.92914500000000    1.62938700000000
C        70.38876900000000   -2.63336600000000    0.63196000000000
N        70.72654400000000   -1.57998800000000   -0.01733500000000
C        69.13637600000001   -3.34037300000000    0.30076700000000
C        68.02249900000000   -2.74367600000000   -0.04657500000000
N        67.64038700000000   -1.46091900000000    0.37110800000000
H        66.94279899999999   -4.21770300000000   -1.39746100000000
H        65.07771099999999   -2.44897300000000   -1.58940100000000
H        65.16881800000000    2.45785000000000    1.51392400000000
H        67.14550600000000    4.34797900000000    1.30306700000000
H        69.40188800000001    4.57097000000000   -0.40583600000000
H        71.44371800000000    3.86453500000000   -2.43657900000000
H        73.19799100000000    1.98449200000000   -2.24204500000000
H        73.25248900000000   -1.94059200000000    2.15369100000000
H        71.41611700000000   -3.74275300000000    2.33765400000000
H        69.17486100000001   -4.44033200000000    0.35980300000000
193
 energy: -351.765735968973 gnorm: 0.467559426904 xtb: 6.4.1 (bd6e46d)
Cu       27.55423398964841    0.04010190766777   -0.01049813893787
C        29.87341799152345   -3.11562718930332    1.30129822693770
C        30.80208743384430   -2.15987546162741    1.25792524430984
C        30.36858587854884   -1.10855186118638    0.34709710692442
C        30.97459323166932    0.03648055613531   -0.01381923966734
C        30.27783868580489    1.23373236072550   -0.36159566719211
C        30.63271439749186    2.22497742647462   -1.23671366253557
C        29.61585687445751    3.21428889460938   -1.25065344352162
C        28.64262071320512    2.81166436068247   -0.38227246063043
N        29.02468071759011    1.58315760405001    0.17667255610238
C        27.40723738238643    3.47953715899803   -0.00989931466157
C        26.28271986254841    2.83124047315536    0.34124123856696
C        25.22016379400865    3.17338007722111    1.29262094116357
C        24.35744892705738    2.15959793346532    1.23765387178861
C        24.81558295090665    1.16603718651640    0.26807833010796
N        25.95912456208129    1.58116145812612   -0.21415665620535
C        24.19793576615992   -0.06799614130100   -0.15577773550653
C        24.87636010992248   -1.19729134458236   -0.42026733398492
C        24.49012063301886   -2.25670883909794   -1.35889511536698
C        25.45631051779251   -3.17050824912913   -1.28305966964184
C        26.44335941104179   -2.72098924059836   -0.30990152553659
N        26.09505906835093   -1.54289468205870    0.16873417934922
C        27.64777575261838   -3.37575487105428    0.13729817430962
C        28.79566999229069   -2.70949534920009    0.41144859972477
N        29.10985955809763   -1.47050484240531   -0.15776832343824
H        29.92479229664864   -4.01057873869752    1.91984734635764
H        31.70980584175404   -2.19193582767386    1.83516039608037
H        31.54531087083834    2.22173452891129   -1.82260324073378
H        29.60968904930157    4.11438120521443   -1.84992981159969
H        27.35661851713824    4.57168308131641   -0.00655791849927
H        25.17360965366744    4.04219538593601    1.92841290901785
H        23.46560714439923    2.12327705992997    1.84898486857239
H        23.11278761036769   -0.07762841788703   -0.26727840025916
H        23.63237687320659   -2.29970804288170   -2.01461422179694
H        25.45633661469465   -4.07064462314808   -1.87968287324767
H        27.62413218310497   -4.46049514050845    0.25886164357795
Cu       84.11875904288986   -0.00574770782145   -0.01475123106022
C        81.79961267487496    2.85181045935491    1.85973932552668
C        80.87081121775529    1.92084106096859    1.63968864335082
C        81.30403562928375    1.05690612240569    0.54952879723802
C        80.69754234740587   -0.00172590928940   -0.01691989748166
C        81.39502805599960   -1.11338300241551   -0.58135721083580
C        81.04029240909883   -1.92515444059708   -1.62501629375851
C        82.05717426546289   -2.89482040476260   -1.82222203325702
C        83.03033013737667   -2.66028736661545   -0.89427762631198
N        82.64816769447826   -1.55655574773750   -0.11728356540390
C        84.26572389402222   -3.38556146587178   -0.65229363818070
C        85.39027210884845   -2.81362807528137   -0.18693683195694
C        86.45280371741639   -3.32631941949979    0.68448188388369
C        87.31559644069249   -2.31999036750724    0.81843232756958
C        86.85743352530956   -1.16377094694218    0.05006560719563
N        85.71382677396704   -1.48230084494397   -0.50076099277873
C        87.47505034216034    0.12740416392558   -0.13744965678995
C        86.79658430708372    1.28623022800963   -0.18789252315916
C        87.18281540404823    2.50135465411085   -0.91373289684188
C        86.21669682023364    3.38528140378411   -0.66958667164177
C        85.22964359090012    2.76301603681420    0.20326775167646
N        85.57800102417148    1.51651985039313    0.45500327463956
C        84.02523401519284    3.32337903387194    0.76409363035760
C        82.87733773480292    2.61769844694371    0.91004968583684
N        82.56305149737778    1.50593548291938    0.12073956219904
H        81.74821122004562    3.61652734503878    2.63351094373020
H        79.96316395479499    1.84521906054705    2.21294496042759
H        80.12766576888434   -1.81333401243106   -2.20015450843931
H        82.06331834486186   -3.66805114219450   -2.57813452234155
H        84.31638338476162   -4.45936500892710   -0.85163919601352
H        86.49937739930516   -4.29803117838615    1.14802496789603
H        88.20739028943839   -2.39769085702184    1.42595930615608
H        88.56020229677678    0.15759631202218   -0.24520925124776
H        88.04059892468830    2.66526470458294   -1.55004746187963
H        86.21664736222918    4.38044068056033   -1.08891781527998
H        84.04880623027221    4.36679802151018    1.08468352488397
C        33.88010329312174    0.01500675030932   -0.00672796302923
C        35.10694949690200    0.02230073430440   -0.00745395903267
C        36.48783267933750    0.02366346717979   -0.00185724156425
C        37.70979794183771    0.02335581477952   -0.01077084803683
C        47.25697488473541    0.02221899713995   -0.00559068218511
C        48.47456891917780    0.02290354874536   -0.00545270655845
C        49.84154384106668    0.02352499021941   -0.00235120085916
C        51.06070269319851    0.02314632581228   -0.01220785220594
C        60.60727041914259    0.02236161358680   -0.00522762801867
C        61.82444805470578    0.02291188979331   -0.00544074443580
C        63.19182748596290    0.02350135768409   -0.00240100694599
C        64.41068118520251    0.02308895182209   -0.01224984403055
C        73.95974748613585    0.02272323665335   -0.00499257061127
C        75.17877183563689    0.02278127050957   -0.00583342536939
C        76.56465655513691    0.02213612773255   -0.00218238512588
C        77.78958465357266    0.01403201154295   -0.00772977229014
Cu       42.51363259914136    0.03712703590441    0.00022196995475
C        40.24360524069186   -3.24567614734482   -0.89939196097116
C        39.28111084192412   -2.32593747830468   -1.00106394690323
C        39.70786175593029   -1.18141026195062   -0.20864534807479
C        39.05979031919279    0.00662222939994    0.00592700865263
C        39.75975814793411    1.26550622460266    0.22902075489890
C        39.38454403947693    2.36621496722687    0.94839070593785
C        40.39332737617413    3.36036949879692    0.85430269436542
C        41.37928876279684    2.84044101659166    0.06845836750915
N        41.01917536209325    1.53016440326311   -0.32917741470501
C        42.60118509031562    3.47223622443425   -0.34543562474246
C        43.72569831693277    2.79389447838738   -0.67596345036393
C        44.71758118647237    3.06639283676882   -1.69688852362932
C        45.62470071342035    2.08525867572139   -1.60788115944056
C        45.22471405928135    1.18666508226005   -0.51979024793650
N        44.09505664854454    1.61460562838837   -0.01495972905971
C        45.88640871057087    0.00338236381233   -0.00249743585522
C        45.24191257454171   -1.09710387421414    0.47530643401975
C        45.64900034315932   -2.01360209430461    1.53361704578409
C        44.69242115986356   -2.94606336153824    1.62863512666361
C        43.67782930840058   -2.64059088040329    0.64097970865507
N        44.00860012304678   -1.54288334920352   -0.00386122553622
C        42.45625982572538   -3.34692271475738    0.31058872169030
C        41.30961966050964   -2.73107766732139   -0.05369459992534
N        40.95343242591839   -1.44756939177853    0.33958374268317
H        40.24752330285215   -4.21486117623117   -1.39365270846843
H        38.37839572109814   -2.43865588244900   -1.58454732666242
H        38.46800811334608    2.46199398330575    1.51509971123855
H        40.43423496658776    4.34228893551239    1.30534439653927
H        42.68427229014456    4.56437118292517   -0.41183472260888
H        44.73630178746752    3.86304107926868   -2.42836734067187
H        46.49855008716172    1.97780415166612   -2.23890962829965
H        46.54660551693593   -1.93533634235624    2.14516294740670
H        44.70836485611322   -3.74919314476572    2.33831339952147
H        42.48054597836835   -4.43745042473234    0.35733909237698
Cu       55.86328377342893    0.03711771274667    0.00043856606043
C        53.59282561102272   -3.24585893842446   -0.89943828889829
C        52.63085924132215   -2.32704332012225   -1.00050027903324
C        53.05774107954668   -1.18130476824309   -0.20692585506646
C        52.41113753670550    0.00576620135631    0.00554502717534
C        53.11042408344237    1.26621018615717    0.22845086276720
C        52.73505902936476    2.36631558610707    0.94870522822181
C        53.74329236534772    3.36085824297140    0.85408544728178
C        54.72947562976436    2.84070352880829    0.06835758575750
N        54.36829515209548    1.53058949689075   -0.32969514064184
C        55.95115115531087    3.47207091720252   -0.34500071573462
C        57.07608582099690    2.79364159609416   -0.67587124128686
C        58.06769375773050    3.06623015057252   -1.69715023102448
C        58.97497968292578    2.08533296583241   -1.60803215737014
C        58.57476639718995    1.18666997445766   -0.52000427589007
N        57.44559103120966    1.61511914074595   -0.01466995873417
C        59.23610111979774    0.00318779448773   -0.00233367715473
C        58.59238426179908   -1.09700135798100    0.47523468384598
C        58.99970048792945   -2.01395466636620    1.53360872779576
C        58.04269868560387   -2.94552320450547    1.62926674897640
C        57.02840732811596   -2.63974478444699    0.64112397790565
N        57.35899164656232   -1.54401058398476   -0.00421096744290
C        55.80582239227221   -3.34681401925786    0.30981885078048
C        54.66035265594228   -2.73089129477972   -0.05360644163966
N        54.30356290169842   -1.44812303881204    0.33994194920744
H        53.59751872510991   -4.21495230993972   -1.39382918181084
H        51.72851001979466   -2.43885840556434   -1.58477506974127
H        51.81809708842741    2.46210350235759    1.51515273349776
H        53.78437263230875    4.34249742426062    1.30544347551715
H        56.03443207587507    4.56431120567099   -0.41161420355729
H        58.08645839871027    3.86305202889410   -2.42842208291724
H        59.84877215603200    1.97782725769547   -2.23900934188952
H        59.89698822263890   -1.93539338787452    2.14525254467433
H        58.05857971275245   -3.74912583652093    2.33842990972620
H        55.83070656891131   -4.43737521570000    0.35670240986580
Cu       69.21354229088216    0.03695432588072    0.00028236271571
C        66.94296144550648   -3.24593857779044   -0.89907027529242
C        65.98121699738050   -2.32690319312341   -1.00044396673009
C        66.40789046868751   -1.18094135348335   -0.20713851618516
C        65.76120622345192    0.00573287282923    0.00550975432474
C        66.46026542125284    1.26612373834017    0.22892366906148
C        66.08514444117183    2.36591049400582    0.94852590871916
C        67.09381103353816    3.36068364694860    0.85403699555187
C        68.07985845729981    2.84081775032823    0.06865378119256
N        67.71905160537824    1.53034793468325   -0.32928196381296
C        69.30150006432920    3.47225359356531   -0.34508903936977
C        70.42629772187790    2.79403953096172   -0.67568644536665
C        71.41780117272047    3.06634650343922   -1.69687635397592
C        72.32491345290410    2.08509474898301   -1.60815674215982
C        71.92456958127720    1.18556877340368   -0.52104983449053
N        70.79548562473350    1.61409491729991   -0.01513598008123
C        72.58762337919046    0.00281988393701   -0.00210701086683
C        71.94310107148485   -1.09619220472112    0.47616063894591
C        72.35000917017226   -2.01344061371391    1.53311982627884
C        71.39212273902416   -2.94494315244897    1.62923126575176
C        70.37909625139584   -2.63957921510007    0.64143931432949
N        70.70842735139772   -1.54335289626909   -0.00333931609914
C        69.15537942678267   -3.34730887325609    0.30930953539678
C        68.01081616163025   -2.73149909780642   -0.05324710296878
N        67.65428056011976   -1.44722509870009    0.33963888540130
H        66.94768582861543   -4.21489924765540   -1.39377032605482
H        65.07877483205917   -2.43881956339430   -1.58473077331040
H        65.16825364847492    2.46201092565172    1.51502486727072
H        67.13456855934157    4.34245003332639    1.30528707273091
H        69.38453641522652    4.56439247309370   -0.41192629730784
H        71.43661123754529    3.86305079341818   -2.42833777052435
H        73.19885981560297    1.97778773301832   -2.23885456005728
H        73.24717351127994   -1.93539347567450    2.14498943865229
H        71.40858630914225   -3.74897675737478    2.33819073434704
H        69.18080696032992   -4.43763099409438    0.35614775318012
193
 energy: -351.946726966568 gnorm: 0.194206982320 xtb: 6.4.1 (bd6e46d)
Cu       27.56239502605039    0.03889650718519   -0.00866929791797
C        29.87320508565428   -3.12255117263281    1.28818266777870
C        30.81320107006790   -2.15721649886805    1.25389986571163
C        30.35403562773728   -1.10684959182231    0.36103654588419
C        30.93990812545182    0.06035475074224   -0.02219685939441
C        30.25939403178975    1.22813335702972   -0.35538338841164
C        30.63895351298233    2.25370187068319   -1.24703744588606
C        29.64750767556927    3.21107789944576   -1.25533736485241
C        28.63556640296191    2.78421691802055   -0.37374421748964
N        28.99552845325307    1.56293870910121    0.16349139629167
C        27.42929511278089    3.47101947878422   -0.00970240951506
C        26.28028905995783    2.80804426061267    0.34757284611672
C        25.22526962705210    3.17611561322092    1.26842778802460
C        24.33675995162460    2.15401815877476    1.23462602608399
C        24.81214021695108    1.16604639560203    0.28762241924008
N        25.99847635353730    1.55454291902493   -0.18436101044819
C        24.19175007348863   -0.04760140898395   -0.14912472597139
C        24.88403156770615   -1.19523075313642   -0.43154288814571
C        24.48550769147173   -2.25522736686694   -1.33929529550999
C        25.46085942864675   -3.18754850428093   -1.27456857039385
C        26.45425030886153   -2.72583482747123   -0.32099506948614
N        26.11290336621672   -1.50938964097011    0.12998196768986
C        27.63142965274862   -3.37746778657004    0.12927737241752
C        28.79901449715225   -2.69178445935335    0.41358507095220
N        29.09822161197301   -1.46467638972356   -0.12013129243512
H        29.91543027858872   -4.00579500016780    1.90704809244042
H        31.71652357173536   -2.17996390294036    1.82900073957135
H        31.54249317871565    2.22855047621412   -1.82171314196551
H        29.61362630182878    4.10910299914131   -1.84656850540901
H        27.37466046382964    4.56055066006226   -0.00340853555962
H        25.18129938539973    4.03767679094615    1.91560943373839
H        23.45988061645167    2.11301185687540    1.84448450341598
H        23.11611553386183   -0.07085416793470   -0.27026237561882
H        23.63560494240614   -2.28973792649017   -2.00167069811245
H        25.46818588696964   -4.07599810569843   -1.87239965716681
H        27.62169149703961   -4.45383053789108    0.25878845862065
Cu       84.11063451685968   -0.00500778296387   -0.01266018381677
C        81.79991467398655    2.86093768246307    1.84822237997130
C        80.85953983762384    1.91909431482384    1.63509339018137
C        81.31816405579528    1.05286956068804    0.56269448112085
C        80.73097835079615   -0.02372786988714   -0.02920512417962
C        81.41321577684855   -1.10891436802404   -0.57426480983930
C        81.03396526931361   -1.95150701391236   -1.64042159990193
C        82.02550848431247   -2.89086709584924   -1.82615263251906
C        83.03733800690301   -2.63492110505162   -0.88077028956828
N        82.67713339925564   -1.53391154867787   -0.12669876434086
C        84.24358862297207   -3.37718093688243   -0.65052643928461
C        85.39268650142562   -2.79191641864922   -0.17636076683978
C        86.44766134062537   -3.32444514279632    0.66028745096398
C        87.33640058453163   -2.31398447849062    0.81633990999660
C        86.86093980914958   -1.16735292901458    0.06922768962944
N        85.67437014166109   -1.46173256393265   -0.46643966716496
C        87.48121574488167    0.10602860160321   -0.13461434922060
C        86.78879911415110    1.28631555292668   -0.19940419074520
C        87.18731722538057    2.49621284770266   -0.89487504149202
C        86.21217362207703    3.40051812815955   -0.65799130805754
C        85.21876170195900    2.76989414800834    0.19330429122644
N        85.56025186372217    1.49071915506220    0.41065302664697