324
 energy: -568.904849399283 gnorm: 2.427069815116 xtb: 6.4.1 (bd6e46d)
Zn       41.31463600000000    0.03959600000000   -0.01298000000000
C        43.64362700000001   -3.10719700000000    1.30970800000000
C        44.55973400000001   -2.16298900000000    1.25942600000000
C        44.14855400000000   -1.10908500000000    0.33813400000000
C        44.76742500000000    0.01526100000000   -0.00827500000000
C        44.06338300000000    1.23520900000000   -0.37238100000000
C        44.39149300000000    2.19526400000000   -1.21985400000000
C        43.35671300000000    3.21154900000000   -1.23675200000000
C        42.42044500000000    2.83508700000000   -0.38986000000000
N        42.82243600000000    1.60207600000000    0.17395700000000
C        41.15937100000000    3.48008600000000   -0.01070900000000
C        40.06415400000001    2.84530400000000    0.34005200000000
C        38.99052800000000    3.16326000000000    1.30908000000000
C        38.15296500000000    2.16650600000000    1.23191300000000
C        38.59126300000000    1.16282300000000    0.25146100000000
N        39.69620100000001    1.60167600000000   -0.23283100000000
C        37.98042800000000   -0.09044800000000   -0.16208700000000
C        38.64458900000000   -1.19495400000000   -0.41651100000000
C        38.27074000000000   -2.25789600000000   -1.37403900000000
C        39.21948700000000   -3.15165200000000   -1.28501900000000
C        40.20521100000001   -2.71420200000000   -0.30214200000000
N        39.85216500000000   -1.56839700000000    0.19465600000000
C        41.43609900000000   -3.37027200000000    0.14358000000000
C        42.55914000000001   -2.72441100000000    0.41070100000000
N        42.88774000000000   -1.47697000000000   -0.18770300000000
H        43.70388800000000   -4.01697800000000    1.92725500000000
H        45.47606100000001   -2.20293900000000    1.83747500000000
H        45.31885800000000    2.21205900000000   -1.82099800000000
H        43.37361200000000    4.11623800000000   -1.84937300000000
H        41.11164800000000    4.57488900000000   -0.01448600000000
H        38.93770700000000    4.04198500000000    1.93407200000000
H        37.24133500000001    2.13083600000000    1.84923700000000
H        36.88217800000000   -0.08753700000000   -0.26135700000000
H        37.40188400000000   -2.31036100000000   -2.02298900000000
H        39.21664100000000   -4.06796000000000   -1.88377900000000
H        41.40061700000000   -4.46607400000000    0.25550500000000
Zn      154.09447800000001   -0.00778000000000   -0.01741300000000
C       151.76548700000001    2.83901200000000    1.86609100000000
C       150.84938000000000    1.92052300000000    1.64151800000000
C       151.26055900000000    1.05582600000000    0.54070400000000
C       150.64168900000004    0.01526100000000   -0.00827500000000
C       151.34573100000000   -1.11596400000000   -0.59237800000000
C       151.01762100000002   -1.90213600000000   -1.60324500000000
C       152.05240000000001   -2.89764500000000   -1.80838500000000
C       152.98866799999999   -2.68482900000000   -0.90635500000000
N       152.58667800000001   -1.57781700000000   -0.12358400000000
C       154.24974300000000   -3.38897000000000   -0.65344200000000
C       155.34495999999999   -2.83027700000000   -0.19100900000000
C       156.41858500000001   -3.32248200000000    0.70221300000000
C       157.25614800000000   -2.32871500000000    0.81129900000000
C       156.81785100000002   -1.16056700000000    0.03406300000000
N       155.71291299999999   -1.50195900000000   -0.52323600000000
C       157.42868600000000    0.14766900000000   -0.13980600000000
C       156.76452500000002    1.28020200000000   -0.18491300000000
C       157.13837400000000    2.50232800000000   -0.92862800000000
C       156.18962700000000    3.36405500000000   -0.67534900000000
C       155.20390300000000    2.75186000000000    0.20931400000000
N       155.55694900000000    1.53378200000000    0.48492400000000
C       153.97301500000000    3.31385500000000    0.76900900000000
C       152.84997300000003    2.62965000000000    0.91167700000000
N       152.52137300000001    1.51487500000000    0.09224200000000
H       151.70522500000001    3.61843700000000    2.64169500000000
H       149.93305200000000    1.85254200000000    2.21694300000000
H       150.09025500000001   -1.80711900000000   -2.19707000000000
H       152.03550100000001   -3.67298000000000   -2.57820500000000
H       154.29746499999999   -4.46406800000000   -0.86025500000000
H       156.47140700000000   -4.30189900000000    1.15334000000000
H       158.16777900000000   -2.40818700000000    1.42452400000000
H       158.52693600000001    0.16322400000000   -0.23789400000000
H       158.00722999999999    2.67427100000000   -1.55658000000000
H       156.19247300000001    4.37553600000000   -1.09372600000000
H       154.00849700000001    4.36987100000000    1.08227800000000
C        47.73943600000000    0.02639200000000   -0.00423400000000
C        48.95496900000000    0.00104800000000   -0.01471400000000
C        50.37648600000000   -0.02037500000000   -0.01888900000000
C        51.58504800000000   -0.02258600000000   -0.01878400000000
C        53.00612300000000   -0.00362600000000   -0.01941100000000
C        54.21726500000000    0.02639200000000   -0.00423400000000
C        63.31461200000000    0.02639200000000   -0.00423400000000
C        64.53014500000000    0.00104800000000   -0.01471400000000
C        65.95166200000000   -0.02037500000000   -0.01888900000000
C        67.16022300000000   -0.02258600000000   -0.01878400000000
C        68.58129900000000   -0.00362600000000   -0.01941100000000
C        69.79244100000000    0.02639200000000   -0.00423400000000
C        78.88978700000000    0.02639200000000   -0.00423400000000
C        80.10532000000001    0.00104800000000   -0.01471400000000
C        81.52683700000000   -0.02037500000000   -0.01888900000000
C        82.73539900000000   -0.02258600000000   -0.01878400000000
C        84.15647400000002   -0.00362600000000   -0.01941100000000
C        85.36761600000000    0.02639200000000   -0.00423400000000
C        94.46496300000001    0.02639200000000   -0.00423400000000
C        95.68049600000001    0.00104800000000   -0.01471400000000
C        97.10201300000000   -0.02037500000000   -0.01888900000000
C        98.31057400000000   -0.02258600000000   -0.01878400000000
C        99.73165000000000   -0.00362600000000   -0.01941100000000
C       100.94279200000001    0.02639200000000   -0.00423400000000
C       110.04013900000000    0.02639200000000   -0.00423400000000
C       111.25567100000002    0.00104800000000   -0.01471400000000
C       112.67718800000000   -0.02037500000000   -0.01888900000000
C       113.88575000000002   -0.02258600000000   -0.01878400000000
C       115.30682500000000   -0.00362600000000   -0.01941100000000
C       116.51796700000000    0.02639200000000   -0.00423400000000
C       125.61531400000000    0.02639200000000   -0.00423400000000
C       126.83084700000001    0.00104800000000   -0.01471400000000
C       128.25236400000000   -0.02037500000000   -0.01888900000000
C       129.46092500000000   -0.02258600000000   -0.01878400000000
C       130.88200100000000   -0.00362600000000   -0.01941100000000
C       132.09314300000000    0.02639200000000   -0.00423400000000
C       141.19049000000001    0.02639200000000   -0.00423400000000
C       142.40602200000001    0.00104800000000   -0.01471400000000
C       143.82753900000000   -0.02037500000000   -0.01888900000000
C       145.03610100000000   -0.02258600000000   -0.01878400000000
C       146.45717600000000   -0.00362600000000   -0.01941100000000
C       147.66831800000000    0.02639200000000   -0.00423400000000
Zn       58.80585500000000    0.03800900000000    0.00059400000000
C        56.52604500000000   -3.22343800000000   -0.90907200000000
C        55.56983500000000   -2.32408800000000   -1.01109800000000
C        55.96221000000000   -1.16178300000000   -0.20858200000000
C        55.32709300000000   -0.01051100000000    0.00368400000000
C        56.01255000000000    1.26408900000000    0.22991300000000
C        55.67726000000000    2.34268900000000    0.93415400000000
C        56.70180100000001    3.36200600000000    0.84357200000000
C        57.65239900000000    2.86508100000000    0.07020700000000
N        57.27540400000000    1.54847600000000   -0.34593500000000
C        58.89953800000000    3.47678300000000   -0.34665800000000
C        60.00109000000000    2.80952500000000   -0.67843000000000
C        60.99463600000000    3.06151000000000   -1.71259900000000
C        61.88851900000000    2.10065100000000   -1.61111600000000
C        61.50882100000000    1.18876700000000   -0.50713900000000
N        60.41390600000000    1.63808600000000    0.00022800000000
C        62.16602800000000   -0.01051100000000    0.00368400000000
C        61.54261700000000   -1.07969300000000    0.46520100000000
C        61.92132900000000   -2.01180800000000    1.54067600000000
C        60.98066100000000   -2.92595400000000    1.62654200000000
C        59.97235900000000   -2.63017500000000    0.62911500000000
N        60.31013400000000   -1.57679800000000   -0.02018000000000
C        58.71996600000000   -3.33718200000000    0.29792200000000
C        57.60609000000000   -2.74048600000000   -0.04941900000000
N        57.22397700000000   -1.45772900000000    0.36826400000000
H        56.52638900000001   -4.21451200000000   -1.40030600000000
H        54.66130100000001   -2.44578200000000   -1.59224600000000
H        54.75240800000000    2.46104000000000    1.51108000000000
H        56.72909600000001    4.35117000000000    1.30022300000000
H        58.98547800000000    4.57416000000000   -0.40868100000000
H        61.02730900000000    3.86772600000000   -2.43942300000000
H        62.78158100000000    1.98768300000000   -2.24489000000000
H        62.83608000000000   -1.93740200000000    2.15084600000000
H        60.99970700000000   -3.73956200000000    2.33481000000000
H        58.75845100000001   -4.43714200000000    0.35695800000000
Zn       74.38103099999999    0.03800900000000    0.00059400000000
C        72.10122000000000   -3.22343800000000   -0.90907200000000
C        71.14501100000000   -2.32408800000000   -1.01109800000000
C        71.53738500000000   -1.16178300000000   -0.20858200000000
C        70.90226900000000   -0.01051100000000    0.00368400000000
C        71.58772600000002    1.26408900000000    0.22991300000000
C        71.25243500000001    2.34268900000000    0.93415400000000
C        72.27697700000000    3.36200600000000    0.84357200000000
C        73.22757400000000    2.86508100000000    0.07020700000000
N        72.85057999999999    1.54847600000000   -0.34593500000000
C        74.47471400000001    3.47678300000000   -0.34665800000000
C        75.57626500000001    2.80952500000000   -0.67843000000000
C        76.56981200000001    3.06151000000000   -1.71259900000000
C        77.46369500000000    2.10065100000000   -1.61111600000000
C        77.08399700000001    1.18876700000000   -0.50713900000000
N        75.98908200000000    1.63808600000000    0.00022800000000
C        77.74120400000000   -0.01051100000000    0.00368400000000
C        77.11779199999999   -1.07969300000000    0.46520100000000
C        77.49650500000000   -2.01180800000000    1.54067600000000
C        76.55583600000000   -2.92595400000000    1.62654200000000
C        75.54753500000000   -2.63017500000000    0.62911500000000
N        75.88531000000000   -1.57679800000000   -0.02018000000000
C        74.29514200000000   -3.33718200000000    0.29792200000000
C        73.18126500000000   -2.74048600000000   -0.04941900000000
N        72.79915300000000   -1.45772900000000    0.36826400000000
H        72.10156499999999   -4.21451200000000   -1.40030600000000
H        70.23647699999999   -2.44578200000000   -1.59224600000000
H        70.32758300000000    2.46104000000000    1.51108000000000
H        72.30427200000000    4.35117000000000    1.30022300000000
H        74.56065400000000    4.57416000000000   -0.40868100000000
H        76.60248400000000    3.86772600000000   -2.43942300000000
H        78.35675600000000    1.98768300000000   -2.24489000000000
H        78.41125500000000   -1.93740200000000    2.15084600000000
H        76.57488300000000   -3.73956200000000    2.33481000000000
H        74.33362600000001   -4.43714200000000    0.35695800000000
Zn       89.95620700000002    0.03800900000000    0.00059400000000
C        87.67639600000000   -3.22343800000000   -0.90907200000000
C        86.72018700000000   -2.32408800000000   -1.01109800000000
C        87.11256100000001   -1.16178300000000   -0.20858200000000
C        86.47744400000001   -0.01051100000000    0.00368400000000
C        87.16290100000001    1.26408900000000    0.22991300000000
C        86.82761100000000    2.34268900000000    0.93415400000000
C        87.85215200000000    3.36200600000000    0.84357200000000
C        88.80275000000000    2.86508100000000    0.07020700000000
N        88.42575500000001    1.54847600000000   -0.34593500000000
C        90.04988899999999    3.47678300000000   -0.34665800000000
C        91.15144100000001    2.80952500000000   -0.67843000000000
C        92.14498700000000    3.06151000000000   -1.71259900000000
C        93.03887000000000    2.10065100000000   -1.61111600000000
C        92.65917200000000    1.18876700000000   -0.50713900000000
N        91.56425700000001    1.63808600000000    0.00022800000000
C        93.31637900000001   -0.01051100000000    0.00368400000000
C        92.69296799999999   -1.07969300000000    0.46520100000000
C        93.07168000000000   -2.01180800000000    1.54067600000000
C        92.13101200000000   -2.92595400000000    1.62654200000000
C        91.12271000000001   -2.63017500000000    0.62911500000000
N        91.46048500000001   -1.57679800000000   -0.02018000000000
C        89.87031700000000   -3.33718200000000    0.29792200000000
C        88.75644100000000   -2.74048600000000   -0.04941900000000
N        88.37432800000001   -1.45772900000000    0.36826400000000
H        87.67674000000001   -4.21451200000000   -1.40030600000000
H        85.81165200000001   -2.44578200000000   -1.59224600000000
H        85.90275900000000    2.46104000000000    1.51108000000000
H        87.87944700000001    4.35117000000000    1.30022300000000
H        90.13582900000000    4.57416000000000   -0.40868100000000
H        92.17766000000000    3.86772600000000   -2.43942300000000
H        93.93193200000002    1.98768300000000   -2.24489000000000
H        93.98643100000000   -1.93740200000000    2.15084600000000
H        92.15005800000000   -3.73956200000000    2.33481000000000
H        89.90880199999999   -4.43714200000000    0.35695800000000
Zn      105.53138199999999    0.03800900000000    0.00059400000000
C       103.25157100000000   -3.22343800000000   -0.90907200000000
C       102.29536200000000   -2.32408800000000   -1.01109800000000
C       102.68773600000000   -1.16178300000000   -0.20858200000000
C       102.05262000000000   -0.01051100000000    0.00368400000000
C       102.73807700000000    1.26408900000000    0.22991300000000
C       102.40278600000002    2.34268900000000    0.93415400000000
C       103.42732800000000    3.36200600000000    0.84357200000000
C       104.37792500000000    2.86508100000000    0.07020700000000
N       104.00093099999999    1.54847600000000   -0.34593500000000
C       105.62506500000001    3.47678300000000   -0.34665800000000
C       106.72661600000001    2.80952500000000   -0.67843000000000
C       107.72016300000001    3.06151000000000   -1.71259900000000
C       108.61404600000000    2.10065100000000   -1.61111600000000
C       108.23434800000000    1.18876700000000   -0.50713900000000
N       107.13943300000000    1.63808600000000    0.00022800000000
C       108.89155500000000   -0.01051100000000    0.00368400000000
C       108.26814300000001   -1.07969300000000    0.46520100000000
C       108.64685600000000   -2.01180800000000    1.54067600000000
C       107.70618700000001   -2.92595400000000    1.62654200000000
C       106.69788600000000   -2.63017500000000    0.62911500000000
N       107.03566100000000   -1.57679800000000   -0.02018000000000
C       105.44549300000000   -3.33718200000000    0.29792200000000
C       104.33161600000001   -2.74048600000000   -0.04941900000000
N       103.94950400000000   -1.45772900000000    0.36826400000000
H       103.25191599999999   -4.21451200000000   -1.40030600000000
H       101.38682799999999   -2.44578200000000   -1.59224600000000
H       101.47793400000002    2.46104000000000    1.51108000000000
H       103.45462300000000    4.35117000000000    1.30022300000000
H       105.71100500000000    4.57416000000000   -0.40868100000000
H       107.75283500000002    3.86772600000000   -2.43942300000000
H       109.50710700000000    1.98768300000000   -2.24489000000000
H       109.56160600000001   -1.93740200000000    2.15084600000000
H       107.72523400000000   -3.73956200000000    2.33481000000000
H       105.48397700000001   -4.43714200000000    0.35695800000000
Zn      121.10655800000001    0.03800900000000    0.00059400000000
C       118.82674700000001   -3.22343800000000   -0.90907200000000
C       117.87053800000000   -2.32408800000000   -1.01109800000000
C       118.26291200000000   -1.16178300000000   -0.20858200000000
C       117.62779500000001   -0.01051100000000    0.00368400000000
C       118.31325200000002    1.26408900000000    0.22991300000000
C       117.97796200000001    2.34268900000000    0.93415400000000
C       119.00250300000000    3.36200600000000    0.84357200000000
C       119.95310100000002    2.86508100000000    0.07020700000000
N       119.57610600000000    1.54847600000000   -0.34593500000000
C       121.20024000000001    3.47678300000000   -0.34665800000000
C       122.30179200000002    2.80952500000000   -0.67843000000000
C       123.29533800000000    3.06151000000000   -1.71259900000000
C       124.18922100000000    2.10065100000000   -1.61111600000000
C       123.80952300000001    1.18876700000000   -0.50713900000000
N       122.71460800000000    1.63808600000000    0.00022800000000
C       124.46673000000001   -0.01051100000000    0.00368400000000
C       123.84331899999999   -1.07969300000000    0.46520100000000
C       124.22203200000001   -2.01180800000000    1.54067600000000
C       123.28136300000000   -2.92595400000000    1.62654200000000
C       122.27306100000000   -2.63017500000000    0.62911500000000
N       122.61083600000002   -1.57679800000000   -0.02018000000000
C       121.02066800000000   -3.33718200000000    0.29792200000000
C       119.90679200000000   -2.74048600000000   -0.04941900000000
N       119.52467900000001   -1.45772900000000    0.36826400000000
H       118.82709100000000   -4.21451200000000   -1.40030600000000
H       116.96200300000001   -2.44578200000000   -1.59224600000000
H       117.05311000000000    2.46104000000000    1.51108000000000
H       119.02979800000000    4.35117000000000    1.30022300000000
H       121.28618000000000    4.57416000000000   -0.40868100000000
H       123.32801100000000    3.86772600000000   -2.43942300000000
H       125.08228300000000    1.98768300000000   -2.24489000000000
H       125.13678200000000   -1.93740200000000    2.15084600000000
H       123.30040900000002   -3.73956200000000    2.33481000000000
H       121.05915299999999   -4.43714200000000    0.35695800000000
Zn      136.68173300000001    0.03800900000000    0.00059400000000
C       134.40192200000001   -3.22343800000000   -0.90907200000000
C       133.44571300000001   -2.32408800000000   -1.01109800000000
C       133.83808700000000   -1.16178300000000   -0.20858200000000
C       133.20297099999999   -0.01051100000000    0.00368400000000
C       133.88842800000000    1.26408900000000    0.22991300000000
C       133.55313799999999    2.34268900000000    0.93415400000000
C       134.57767899999999    3.36200600000000    0.84357200000000
C       135.52827600000001    2.86508100000000    0.07020700000000
N       135.15128200000001    1.54847600000000   -0.34593500000000
C       136.77541600000001    3.47678300000000   -0.34665800000000
C       137.87696700000001    2.80952500000000   -0.67843000000000
C       138.87051399999999    3.06151000000000   -1.71259900000000
C       139.76439700000000    2.10065100000000   -1.61111600000000
C       139.38469900000001    1.18876700000000   -0.50713900000000
N       138.28978400000000    1.63808600000000    0.00022800000000
C       140.04190600000001   -0.01051100000000    0.00368400000000
C       139.41849400000001   -1.07969300000000    0.46520100000000
C       139.79720699999999   -2.01180800000000    1.54067600000000
C       138.85653800000000   -2.92595400000000    1.62654200000000
C       137.84823700000004   -2.63017500000000    0.62911500000000
N       138.18601200000001   -1.57679800000000   -0.02018000000000
C       136.59584400000000   -3.33718200000000    0.29792200000000
C       135.48196700000000   -2.74048600000000   -0.04941900000000
N       135.09985499999999   -1.45772900000000    0.36826400000000
H       134.40226699999999   -4.21451200000000   -1.40030600000000
H       132.53717900000001   -2.44578200000000   -1.59224600000000
H       132.62828500000001    2.46104000000000    1.51108000000000
H       134.60497400000000    4.35117000000000    1.30022300000000
H       136.86135600000000    4.57416000000000   -0.40868100000000
H       138.90318600000001    3.86772600000000   -2.43942300000000
H       140.65745799999999    1.98768300000000   -2.24489000000000
H       140.71195700000001   -1.93740200000000    2.15084600000000
H       138.87558500000000   -3.73956200000000    2.33481000000000
H       136.63432800000001   -4.43714200000000    0.35695800000000
324
 energy: -570.003453058733 gnorm: 1.097226591738 xtb: 6.4.1 (bd6e46d)
Zn       41.31823302825984    0.04004628053039   -0.01259519675171
C        43.64151783379688   -3.11235994953949    1.30740963528189
C        44.56643035410534   -2.16124947592263    1.25882148080011
C        44.14588129219037   -1.11215694281672    0.34077091557991
C        44.75924536045540    0.02452216181927   -0.01053689986425
C        44.05863530440419    1.22902686977536   -0.36581895641715
C        44.39695750939129    2.21002152427869   -1.23069091907417
C        43.37235910745280    3.21302833103948   -1.24538180847707
C        42.41427439300818    2.82502252783157   -0.38325779146281
N        42.81377674247243    1.59631510357212    0.17591945909611
C        41.16942116730259    3.48224767789796   -0.01246633812637
C        40.05545162602415    2.83734597735851    0.34170298066692
C        38.99516204622478    3.16818138459437    1.30280860595318
C        38.14018999109378    2.16060182817161    1.23400509205206
C        38.58567330190239    1.16311630075821    0.25850842564992
N        39.71069343485707    1.59724234166235   -0.23014587247464
C        37.97414796684348   -0.07835827478101   -0.15860676419057
C        38.64794692537200   -1.20074668679339   -0.41937115505234
C        38.26600286273954   -2.25425011279867   -1.36937245700223
C        39.22460093210012   -3.16224554753729   -1.28448553861824
C        40.21087427478809   -2.72146156033996   -0.30496930288565
N        39.85302331317087   -1.55821146546343    0.18796243920542
C        41.42449063740820   -3.37449585848807    0.13959822536431
C        42.56546506935396   -2.71529724577639    0.41094764201584
N        42.88669552474546   -1.47866622329188   -0.17826357684940
H        43.70145974121251   -4.01442138447521    1.92443283330681
H        45.47670815314963   -2.20011835465357    1.83631500936466
H        45.31653668381910    2.21402236782066   -1.82031974768661
H        43.37499060477113    4.11457988605909   -1.84898267011349
H        41.11562035709090    4.57372673025178   -0.01271859987874
H        38.93952253411376    4.04131569388226    1.93266903729523
H        37.24160967743835    2.12813100796220    1.84787883051163
H        36.88385514850024   -0.08581341631615   -0.26271062984888
H        37.40285431869096   -2.30755611707609   -2.02081512437718
H        39.21979144048526   -4.06788935191630   -1.88207283650511
H        41.39954422711129   -4.46386814861301    0.25566203024429
Zn      154.09088368066585   -0.00829050298309   -0.01712039358635
C       151.76760188623552    2.84450870481713    1.86478978294258
C       150.84268723847575    1.91892270085844    1.64058897482330
C       151.26325650551283    1.05836570027471    0.54385972258040
C       150.64985538107663    0.00662618675366   -0.01220902019003
C       151.35048688891862   -1.11109405179958   -0.58478865671034
C       151.01216280022197   -1.91462273730232   -1.61661933514108
C       152.03675861751657   -2.89749927474125   -1.81713353924672
C       152.99484116060182   -2.67617016994953   -0.89799907325137
N       152.59532735742485   -1.57252302235645   -0.12059465279525
C       154.23968806591702   -3.39077183191134   -0.65557205330318
C       155.35366405338229   -2.82275848659176   -0.18790643240504
C       156.41394696762995   -3.32615228202373    0.69513654593797
C       157.26892483907858   -2.32329750326239    0.81444554817577
C       156.82344846550046   -1.16215809015022    0.04093499561110
N       155.69841431639702   -1.49810687915444   -0.51977620371659
C       157.43496699370985    0.13513587472472   -0.13862619049241
C       156.76116304751355    1.28642868189767   -0.18665135073114
C       157.14310880966980    2.49787426588763   -0.92471897112110
C       156.18450914892048    3.37436639756168   -0.67285491874216
C       155.19823892104711    2.75952311435667    0.20788129967692
N       155.55609587855693    1.52501158435267    0.47645646632306
C       153.98462541207482    3.31874978515717    0.76587784783011
C       152.84364934788147    2.62064880271145    0.91023071724832
N       152.52243390485592    1.51479493470749    0.10184426849396
H       151.70765432891639    3.61644940084640    2.63844866839092
H       149.93240497381549    1.84998554512567    2.21527856926369
H       150.09257715138574   -1.80917144342607   -2.19677203609681
H       152.03412373270675   -3.67142428794315   -2.57751618455387
H       154.29349440731087   -4.46325514951629   -0.85830765447523
H       156.46959130134610   -4.30098160234435    1.15208537432039
H       158.16750514845069   -2.40527700184498    1.42369114061225
H       158.52525961866516    0.16178123789630   -0.23954046581313
H       158.00625983373578    2.67111117387464   -1.55496391572946
H       156.18932234043393    4.37515116036348   -1.09206198551553
H       154.00957037817241    4.36767760152657    1.08202239802674
C        47.73847057938683    0.02629796482032   -0.00408619476186
C        48.96215613840287    0.00082419105743   -0.01461037277766
C        50.36635030076300   -0.02003566347598   -0.01889903343152
C        51.59087782057810   -0.02219187464845   -0.01876656329502
C        52.96637320952466   -0.00402770567301   -0.01939275075102
C        54.15475405482331    0.03248736460826   -0.00542343530771
C        63.36781637294268    0.03108165362070   -0.00417259535620
C        64.56435448906350    0.00054324451846   -0.01444504353709
C        65.94255675660790   -0.01991968728769   -0.01920112676935
C        67.16789884180274   -0.02214901938830   -0.01878292993859
C        68.54112284347899   -0.00403532710343   -0.01937641646132
C        69.73005780764460    0.03245611061283   -0.00556059851695
C        78.94297947030245    0.03108552885627   -0.00410518414334
C        80.13953717761024    0.00055533617989   -0.01442906727092
C        81.51773751907720   -0.01992673905598   -0.01921405295486
C        82.74306509622441   -0.02214840066527   -0.01877918943132
C        84.11633407457097   -0.00402777081808   -0.01937757643939
C        85.30518575090963    0.03244849298500   -0.00558745228294
C        94.51815242073545    0.03108554669089   -0.00408311392585
C        95.71472069472453    0.00055860868956   -0.01442377555099
C        97.09290685516143   -0.01992895996101   -0.01921817477500
C        98.31824788550519   -0.02214788035644   -0.01877787907074
C        99.69151114432577   -0.00402528553356   -0.01937779639066
C       100.88035019999963    0.03244524719693   -0.00559663511163
C       110.09331179426245    0.03108397493950   -0.00407657070655
C       111.28992622370671    0.00055860156050   -0.01441981220457
C       112.66805565771234   -0.01992983302499   -0.01921901932049
C       113.89345026853448   -0.02214740429939   -0.01877823301076
C       115.26666517646301   -0.00402397036760   -0.01937787698260
C       116.45552687997116    0.03244302899000   -0.00560062285723
C       125.66846992895150    0.03108209567465   -0.00406578264810
C       126.86513385901974    0.00055849500749   -0.01441382846158
C       128.24321085967429   -0.01993209644657   -0.01922138967432
C       129.46863875183152   -0.02214619602333   -0.01877680332323
C       130.84185955889984   -0.00401984670491   -0.01937736077853
C       132.03065047539093    0.03243981583505   -0.00561442269861
C       141.24408066315019    0.03118483785704   -0.00388383643712
C       142.43965497860606    0.00068806234550   -0.01433252168988
C       143.82077258953908   -0.01993418991517   -0.01925504192598
C       145.04528947877071   -0.02223840162830   -0.01894627808124
C       146.44909357465397   -0.00393325950301   -0.01923186188447
C       147.67051269353425    0.02614064932885   -0.00405648244201
Zn       58.80287901510163    0.03894472449943    0.00018453752532
C        56.52931764385669   -3.23305651194307   -0.90743488182467
C        55.56626561943296   -2.32059373970072   -1.00827793011079
C        55.98853827456878   -1.17886743611649   -0.21042189392152
C        55.38570146573234   -0.00177572606534    0.00479680233495
C        56.03546155942678    1.26755275609949    0.22692267829681
C        55.67304645654453    2.35603262371372    0.94115821266965