      -----------------------------------------------------------      
     |                   =====================                   |     
     |                           x T B                           |     
     |                   =====================                   |     
     |                         S. Grimme                         |     
     |          Mulliken Center for Theoretical Chemistry        |     
     |                    University of Bonn                     |     
      -----------------------------------------------------------      

   * xtb version 6.4.1 (bd6e46d) compiled by 'conda@4901f00b25ba' on 2021-06-10

   xtb is free software: you can redistribute it and/or modify it under
   the terms of the GNU Lesser General Public License as published by
   the Free Software Foundation, either version 3 of the License, or
   (at your option) any later version.
   
   xtb is distributed in the hope that it will be useful,
   but WITHOUT ANY WARRANTY; without even the implied warranty of
   MERCHANTABILITY or FITNESS FOR A PARTICULAR PURPOSE.  See the
   GNU Lesser General Public License for more details.
   
   Cite this work as:
   * C. Bannwarth, E. Caldeweyher, S. Ehlert, A. Hansen, P. Pracht,
     J. Seibert, S. Spicher, S. Grimme, WIREs Comput. Mol. Sci., 2020, 11,
     e01493. DOI: 10.1002/wcms.1493
   
   for GFN2-xTB:
   * C. Bannwarth, S. Ehlert and S. Grimme., J. Chem. Theory Comput., 2019,
     15, 1652-1671. DOI: 10.1021/acs.jctc.8b01176
   for GFN1-xTB:
   * S. Grimme, C. Bannwarth, P. Shushkov, J. Chem. Theory Comput., 2017,
     13, 1989-2009. DOI: 10.1021/acs.jctc.7b00118
   for GFN0-xTB:
   * P. Pracht, E. Caldeweyher, S. Ehlert, S. Grimme, ChemRxiv, 2019, preprint.
     DOI: 10.26434/chemrxiv.8326202.v1
   for GFN-FF:
   * S. Spicher and S. Grimme, Angew. Chem. Int. Ed., 2020, 59, 15665-15673.
     DOI: 10.1002/anie.202004239
   
   for DFT-D4:
   * E. Caldeweyher, C. Bannwarth and S. Grimme, J. Chem. Phys., 2017,
     147, 034112. DOI: 10.1063/1.4993215
   * E. Caldeweyher, S. Ehlert, A. Hansen, H. Neugebauer, S. Spicher,
     C. Bannwarth and S. Grimme, J. Chem. Phys., 2019, 150, 154122.
     DOI: 10.1063/1.5090222
   * E. Caldeweyher, J.-M. Mewes, S. Ehlert and S. Grimme, Phys. Chem. Chem. Phys.
     2020, 22, 8499-8512. DOI: 10.1039/D0CP00502A
   
   for sTDA-xTB:
   * S. Grimme and C. Bannwarth, J. Chem. Phys., 2016, 145, 054103.
     DOI: 10.1063/1.4959605
   
   in the mass-spec context:
   * V. Asgeirsson, C. Bauer and S. Grimme, Chem. Sci., 2017, 8, 4879.
     DOI: 10.1039/c7sc00601b
   * J. Koopman and S. Grimme, ACS Omega 2019, 4, 12, 15120-15133.
     DOI: 10.1021/acsomega.9b02011
   
   for metadynamics refer to:
   * S. Grimme, J. Chem. Theory Comput., 2019, 155, 2847-2862
     DOI: 10.1021/acs.jctc.9b00143
   
   for SPH calculations refer to:
   * S. Spicher and S. Grimme, J. Chem. Theory Comput., 2021, 17, 1701-1714
     DOI: 10.1021/acs.jctc.0c01306
   
   with help from (in alphabetical order)
   P. Atkinson, C. Bannwarth, F. Bohle, G. Brandenburg, E. Caldeweyher
   M. Checinski, S. Dohm, S. Ehlert, S. Ehrlich, I. Gerasimov, J. Koopman
   C. Lavigne, S. Lehtola, F. März, M. Müller, F. Musil, H. Neugebauer
   J. Pisarek, C. Plett, P. Pracht, J. Seibert, P. Shushkov, S. Spicher
   M. Stahn, M. Steiner, T. Strunk, J. Stückrath, T. Rose, and J. Unsleber
   
 * started run on 2021/11/18 at 17:33:21.973     

           -------------------------------------------------
          |                Calculation Setup                |
           -------------------------------------------------

          program call               : /home/jeff/miniconda3/bin/xtb input_structure_1.xyz --gfn 2 --ohess normal --parallel 1 --etemp 300 --chrg 0 --uhf 0 -I det_control.in
          hostname                   : jelfscompute1
          coordinate file            : input_structure_1.xyz
          omp threads                :                     1
          number of atoms            :                   152
          number of electrons        :                   474
          charge                     :                     0
          spin                       :                   0.0
          first test random number   :      0.89946726971665

   ID    Z sym.   atoms
    1    6 C      1-8, 10-14, 16-20, 22, 23, 38-45, 47-51, 53-57, 59, 60,
                  75-88, 90-94, 96-100, 102, 103, 117-124, 126-130, 132-136,
                  138, 139
    2    7 N      9, 15, 21, 24, 46, 52, 58, 61, 89, 95, 101, 104, 125, 131,
                  137, 140
    3    1 H      25-37, 62-74, 105-116, 141-152

           -------------------------------------------------
          |                 G F N 2 - x T B                 |
           -------------------------------------------------

        Reference                      10.1021/acs.jctc.8b01176
      * Hamiltonian:
        H0-scaling (s, p, d)           1.850000    2.230000    2.230000
        zeta-weighting                 0.500000
      * Dispersion:
        s8                             2.700000
        a1                             0.520000
        a2                             5.000000
        s9                             5.000000
      * Repulsion:
        kExp                           1.500000    1.000000
        rExp                           1.000000
      * Coulomb:
        alpha                          2.000000
        third order                    shell-resolved
        anisotropic                    true
        a3                             3.000000
        a5                             4.000000
        cn-shift                       1.200000
        cn-exp                         4.000000
        max-rad                        5.000000


          ...................................................
          :                      SETUP                      :
          :.................................................:
          :  # basis functions                 458          :
          :  # atomic orbitals                 458          :
          :  # shells                          254          :
          :  # electrons                       474          :
          :  max. iterations                   250          :
          :  Hamiltonian                  GFN2-xTB          :
          :  restarted?                      false          :
          :  GBSA solvation                  false          :
          :  PC potential                    false          :
          :  electronic temp.          300.0000000     K    :
          :  accuracy                    1.0000000          :
          :  -> integral cutoff          0.2500000E+02      :
          :  -> integral neglect         0.1000000E-07      :
          :  -> SCF convergence          0.1000000E-05 Eh   :
          :  -> wf. convergence          0.1000000E-03 e    :
          :  Broyden damping             0.4000000          :
          ...................................................

 iter      E             dE          RMSdq      gap      omega  full diag
   1   -259.7660037 -0.259766E+03  0.478E+00    0.39       0.0  T
   2   -260.1648439 -0.398840E+00  0.305E+00    0.48       1.0  T
   3   -260.0054525  0.159391E+00  0.148E+00    0.40       1.0  T
   4   -259.8518579  0.153595E+00  0.122E+00    0.51       1.0  T
   5   -260.2001933 -0.348335E+00  0.378E-01    0.48       1.0  T
   6   -260.2270005 -0.268072E-01  0.192E-01    0.46       1.0  T
   7   -260.2343910 -0.739046E-02  0.711E-02    0.48       1.0  T
   8   -260.2345365 -0.145540E-03  0.485E-02    0.47       1.0  T
   9   -260.2347059 -0.169426E-03  0.380E-02    0.47       1.0  T
  10   -260.2349793 -0.273377E-03  0.186E-02    0.47       1.0  T
  11   -260.2350339 -0.545751E-04  0.866E-03    0.47       1.0  T
  12   -260.2350461 -0.121837E-04  0.390E-03    0.47       2.1  T
  13   -260.2350469 -0.853310E-06  0.273E-03    0.47       3.0  T
  14   -260.2350486 -0.166060E-05  0.779E-04    0.47      10.4  T
  15   -260.2350487 -0.107965E-06  0.346E-04    0.47      23.5  T
  16   -260.2350487 -0.110097E-07  0.199E-04    0.47      40.8  T

   *** convergence criteria satisfied after 16 iterations ***

         #    Occupation            Energy/Eh            Energy/eV
      -------------------------------------------------------------
         1        2.0000           -0.6880488             -18.7228
       ...           ...                  ...                  ...
       231        2.0000           -0.3493543              -9.5064
       232        2.0000           -0.3464921              -9.4285
       233        2.0000           -0.3462321              -9.4215
       234        2.0000           -0.3451922              -9.3932
       235        2.0000           -0.3430452              -9.3347
       236        2.0000           -0.3390970              -9.2273
       237        1.9998           -0.3332202              -9.0674 (HOMO)
       238        0.0002           -0.3159065              -8.5963 (LUMO)
       239                         -0.3083843              -8.3916
       240                         -0.3030686              -8.2469
       241                         -0.3003347              -8.1725
       242                         -0.2929745              -7.9722
       ...                                ...                  ...
       458                          1.3477654              36.6746
      -------------------------------------------------------------
                  HL-Gap            0.0173136 Eh            0.4711 eV
             Fermi-level           -0.3245625 Eh           -8.8318 eV

 SCC (total)                   0 d,  0 h,  0 min,  1.068 sec
 SCC setup                      ...        0 min,  0.004 sec (  0.401%)
 Dispersion                     ...        0 min,  0.009 sec (  0.881%)
 classical contributions        ...        0 min,  0.001 sec (  0.125%)
 integral evaluation            ...        0 min,  0.066 sec (  6.214%)
 iterations                     ...        0 min,  0.743 sec ( 69.610%)
 molecular gradient             ...        0 min,  0.238 sec ( 22.279%)
 printout                       ...        0 min,  0.005 sec (  0.489%)

         :::::::::::::::::::::::::::::::::::::::::::::::::::::
         ::                     SUMMARY                     ::
         :::::::::::::::::::::::::::::::::::::::::::::::::::::
         :: total energy            -255.708224911643 Eh    ::
         :: gradient norm              0.478356682817 Eh/a0 ::
         :: HOMO-LUMO gap              0.471128292931 eV    ::
         ::.................................................::
         :: SCC energy              -260.235048707265 Eh    ::
         :: -> isotropic ES            0.153016359255 Eh    ::
         :: -> anisotropic ES          0.006355412830 Eh    ::
         :: -> anisotropic XC          0.186018552777 Eh    ::
         :: -> dispersion             -0.215069483943 Eh    ::
         :: repulsion energy           4.526702583201 Eh    ::
         :: add. restraining           0.000000000000 Eh    ::
         :: total charge               0.000000000000 e     ::
         :::::::::::::::::::::::::::::::::::::::::::::::::::::

      ----------------------------------------------------------- 
     |                   =====================                   |
     |                        A N C O P T                        |
     |                   =====================                   |
     |               Approximate Normal Coordinate               |
     |                Rational Function Optimizer                |
      ----------------------------------------------------------- 

          ...................................................
          :                      SETUP                      :
          :.................................................:
          :   optimization level            normal          :
          :   max. optcycles                   456          :
          :   ANC micro-cycles                  20          :
          :   degrees of freedom               450          :
          :.................................................:
          :   RF solver                   davidson          :
          :   write xtbopt.log                true          :
          :   linear?                        false          :
          :   energy convergence         0.5000000E-05 Eh   :
          :   grad. convergence          0.1000000E-02 Eh/α :
          :   maximium RF displ.         1.0000000          :
          :   Hlow (freq-cutoff)         0.1000000E-01      :
          :   Hmax (freq-cutoff)         5.0000000          :
          :   S6 in model hess.         20.0000000          :
          ...................................................

generating ANC from model Hessian ...
Using Lindh-Hessian (1995)
 Shifting diagonal of input Hessian by    1.0000839439874834E-002
 Lowest  eigenvalues of input Hessian
    0.010000    0.000000    0.000000    0.000000    0.000000    0.000000
    0.000000    0.010003    0.010007    0.010008    0.010012    0.010018
    0.010027    0.010047    0.010089    0.010181    0.010210    0.010353
 Highest eigenvalues
    2.241237    2.243726    2.262177    2.461661    2.518343    2.541195


........................................................................
.............................. CYCLE    1 ..............................
........................................................................
   1   -260.2350487 -0.260235E+03  0.124E-04    0.47       0.0  T
   2   -260.2350487  0.163206E-07  0.256E-04    0.47      31.6  T
   3   -260.2350487 -0.199897E-07  0.379E-05    0.47     214.3  T
     SCC iter.                  ...        0 min,  0.144 sec
     gradient                   ...        0 min,  0.237 sec
 * total energy  :  -255.7082249 Eh     change       -0.7334847E-08 Eh
   gradient norm :     0.4783556 Eh/α   predicted     0.0000000E+00 (-100.00%)
   displ. norm   :     0.5640439 α      lambda       -0.2147062E+00
   maximum displ.:     0.1230909 α      in ANC's #222, #220, #219, ...

........................................................................
.............................. CYCLE    2 ..............................
........................................................................
   1   -260.3751687 -0.260375E+03  0.315E-01    0.45       0.0  T
   2   -260.3763011 -0.113238E-02  0.188E-01    0.46       1.0  T
   3   -260.3744582  0.184293E-02  0.108E-01    0.45       1.0  T
   4   -260.3746421 -0.183883E-03  0.869E-02    0.45       1.0  T
   5   -260.3764658 -0.182372E-02  0.320E-02    0.46       1.0  T
   6   -260.3766806 -0.214812E-03  0.120E-02    0.46       1.0  T
   7   -260.3767058 -0.252299E-04  0.454E-03    0.45       1.8  T
   8   -260.3767040  0.183012E-05  0.378E-03    0.45       2.1  T
   9   -260.3767067 -0.267859E-05  0.182E-03    0.45       4.4  T
  10   -260.3767075 -0.843724E-06  0.657E-04    0.45      12.3  T
  11   -260.3767076 -0.419439E-07  0.376E-04    0.45      21.6  T
     SCC iter.                  ...        0 min,  0.514 sec
     gradient                   ...        0 min,  0.238 sec
 * total energy  :  -255.8775448 Eh     change       -0.1693199E+00 Eh
   gradient norm :     0.2542065 Eh/α   predicted    -0.1415640E+00 ( -16.39%)
   displ. norm   :     0.6332199 α      lambda       -0.1268498E+00
   maximum displ.:     0.1580187 α      in ANC's #73, #72, #222, ...

........................................................................
.............................. CYCLE    3 ..............................
........................................................................
   1   -260.5094203 -0.260509E+03  0.307E-01    0.41       0.0  T
   2   -260.5104060 -0.985685E-03  0.182E-01    0.42       1.0  T
   3   -260.5085843  0.182170E-02  0.108E-01    0.42       1.0  T
   4   -260.5090718 -0.487520E-03  0.799E-02    0.42       1.0  T
   5   -260.5106049 -0.153310E-02  0.297E-02    0.42       1.0  T
   6   -260.5107965 -0.191566E-03  0.104E-02    0.42       1.0  T
   7   -260.5108141 -0.175999E-04  0.458E-03    0.42       1.8  T
   8   -260.5108104  0.375423E-05  0.465E-03    0.42       1.7  T
   9   -260.5108166 -0.623471E-05  0.140E-03    0.42       5.8  T
  10   -260.5108171 -0.508076E-06  0.459E-04    0.42      17.7  T
  11   -260.5108171 -0.759070E-08  0.301E-04    0.42      27.0  T
     SCC iter.                  ...        0 min,  0.515 sec
     gradient                   ...        0 min,  0.238 sec
 * total energy  :  -255.9622098 Eh     change       -0.8466497E-01 Eh
   gradient norm :     0.0860348 Eh/α   predicted    -0.8885812E-01 (   4.95%)
   displ. norm   :     0.7217327 α      lambda       -0.4737607E-01
   maximum displ.:     0.2928306 α      in ANC's #73, #72, #65, ...

........................................................................
.............................. CYCLE    4 ..............................
........................................................................
   1   -260.5739842 -0.260574E+03  0.215E-01    0.44       0.0  T
   2   -260.5740077 -0.234720E-04  0.128E-01    0.44       1.0  T
   3   -260.5721460  0.186168E-02  0.845E-02    0.44       1.0  T
   4   -260.5739140 -0.176802E-02  0.282E-02    0.44       1.0  T
   5   -260.5741130 -0.199000E-03  0.895E-03    0.44       1.0  T
   6   -260.5741259 -0.128679E-04  0.438E-03    0.44       1.9  T
   7   -260.5741271 -0.120997E-05  0.281E-03    0.44       2.9  T
   8   -260.5741282 -0.112851E-05  0.178E-03    0.44       4.6  T
   9   -260.5741292 -0.101631E-05  0.387E-04    0.44      20.9  T
  10   -260.5741292 -0.173052E-07  0.244E-04    0.44      33.2  T
  11   -260.5741292 -0.204062E-08  0.183E-04    0.44      44.3  T
     SCC iter.                  ...        0 min,  0.514 sec
     gradient                   ...        0 min,  0.238 sec
 * total energy  :  -256.0023224 Eh     change       -0.4011264E-01 Eh
   gradient norm :     0.0604583 Eh/α   predicted    -0.3603816E-01 ( -10.16%)
   displ. norm   :     0.8375621 α      lambda       -0.3913961E-01
   maximum displ.:     0.3613914 α      in ANC's #73, #72, #65, ...

........................................................................
.............................. CYCLE    5 ..............................
........................................................................
   1   -260.6255629 -0.260626E+03  0.207E-01    0.48       0.0  T
   2   -260.6255838 -0.208840E-04  0.121E-01    0.48       1.0  T
   3   -260.6243125  0.127124E-02  0.724E-02    0.48       1.0  T
   4   -260.6255471 -0.123459E-02  0.200E-02    0.48       1.0  T
   5   -260.6256554 -0.108327E-03  0.805E-03    0.48       1.0  T
   6   -260.6256699 -0.145155E-04  0.387E-03    0.48       2.1  T
   7   -260.6256719 -0.194944E-05  0.228E-03    0.48       3.6  T
   8   -260.6256726 -0.698694E-06  0.135E-03    0.48       6.0  T
   9   -260.6256730 -0.448212E-06  0.336E-04    0.48      24.2  T
  10   -260.6256731 -0.173401E-07  0.180E-04    0.48      45.0  T
     SCC iter.                  ...        0 min,  0.467 sec
     gradient                   ...        0 min,  0.239 sec
 * total energy  :  -256.0369003 Eh     change       -0.3457785E-01 Eh
   gradient norm :     0.0466870 Eh/α   predicted    -0.3329842E-01 (  -3.70%)
   displ. norm   :     0.8763191 α      lambda       -0.3277620E-01
   maximum displ.:     0.3672895 α      in ANC's #73, #72, #30, ...

........................................................................
.............................. CYCLE    6 ..............................
........................................................................
   1   -260.6733956 -0.260673E+03  0.194E-01    0.55       0.0  T
   2   -260.6734364 -0.408009E-04  0.112E-01    0.54       1.0  T
   3   -260.6723390  0.109738E-02  0.674E-02    0.55       1.0  T
   4   -260.6733559 -0.101682E-02  0.218E-02    0.54       1.0  T
   5   -260.6734980 -0.142146E-03  0.771E-03    0.54       1.1  T
   6   -260.6735128 -0.148083E-04  0.363E-03    0.54       2.2  T
   7   -260.6735152 -0.239487E-05  0.175E-03    0.54       4.6  T
   8   -260.6735153 -0.475898E-07  0.141E-03    0.54       5.8  T
   9   -260.6735158 -0.543842E-06  0.286E-04    0.54      28.4  T
  10   -260.6735158 -0.153129E-07  0.133E-04    0.54      61.0  T
     SCC iter.                  ...        0 min,  0.468 sec
     gradient                   ...        0 min,  0.238 sec
 * total energy  :  -256.0668141 Eh     change       -0.2991381E-01 Eh
   gradient norm :     0.0423130 Eh/α   predicted    -0.2897311E-01 (  -3.14%)
   displ. norm   :     0.8921067 α      lambda       -0.2858654E-01
   maximum displ.:     0.3450870 α      in ANC's #73, #72, #30, ...

........................................................................
.............................. CYCLE    7 ..............................
........................................................................
   1   -260.7144174 -0.260714E+03  0.188E-01    0.63       0.0  T
   2   -260.7144677 -0.502953E-04  0.109E-01    0.62       1.0  T
   3   -260.7135270  0.940655E-03  0.623E-02    0.63       1.0  T
   4   -260.7143953 -0.868228E-03  0.212E-02    0.62       1.0  T
   5   -260.7145340 -0.138713E-03  0.622E-03    0.62       1.3  T
   6   -260.7145423 -0.832210E-05  0.340E-03    0.62       2.4  T
   7   -260.7145445 -0.224776E-05  0.152E-03    0.62       5.3  T
   8   -260.7145446 -0.665472E-07  0.111E-03    0.62       7.3  T
   9   -260.7145450 -0.351750E-06  0.267E-04    0.62      30.4  T
  10   -260.7145450 -0.127497E-07  0.117E-04    0.62      69.3  T
     SCC iter.                  ...        0 min,  0.467 sec
     gradient                   ...        0 min,  0.239 sec
 * total energy  :  -256.0928550 Eh     change       -0.2604087E-01 Eh
   gradient norm :     0.0334504 Eh/α   predicted    -0.2566863E-01 (  -1.43%)
   displ. norm   :     0.8943239 α      lambda       -0.2389029E-01
   maximum displ.:     0.3146033 α      in ANC's #72, #30, #73, ...

........................................................................
.............................. CYCLE    8 ..............................
........................................................................
   1   -260.7479346 -0.260748E+03  0.181E-01    0.70       0.0  T
   2   -260.7479777 -0.431068E-04  0.105E-01    0.69       1.0  T
   3   -260.7473540  0.623708E-03  0.501E-02    0.70       1.0  T
   4   -260.7479265 -0.572478E-03  0.177E-02    0.69       1.0  T
   5   -260.7480273 -0.100792E-03  0.467E-03    0.69       1.7  T
   6   -260.7480309 -0.356137E-05  0.288E-03    0.69       2.8  T
   7   -260.7480323 -0.148373E-05  0.122E-03    0.69       6.6  T
   8   -260.7480325 -0.200234E-06  0.606E-04    0.69      13.4  T
   9   -260.7480326 -0.897011E-07  0.234E-04    0.69      34.7  T
     SCC iter.                  ...        0 min,  0.420 sec
     gradient                   ...        0 min,  0.238 sec
 * total energy  :  -256.1144462 Eh     change       -0.2159120E-01 Eh
   gradient norm :     0.0266020 Eh/α   predicted    -0.2149908E-01 (  -0.43%)
   displ. norm   :     0.8892654 α      lambda       -0.1944757E-01
   maximum displ.:     0.3380206 α      in ANC's #30, #18, #72, ...

........................................................................
.............................. CYCLE    9 ..............................
........................................................................
   1   -260.7726053 -0.260773E+03  0.171E-01    0.76       0.0  T
   2   -260.7726392 -0.339297E-04  0.991E-02    0.75       1.0  T
   3   -260.7722624  0.376848E-03  0.391E-02    0.76       1.0  T
   4   -260.7726080 -0.345578E-03  0.141E-02    0.75       1.0  T
   5   -260.7726704 -0.624848E-04  0.363E-03    0.75       2.2  T
   6   -260.7726717 -0.129433E-05  0.261E-03    0.75       3.1  T
   7   -260.7726732 -0.147887E-05  0.907E-04    0.75       8.9  T
   8   -260.7726733 -0.114740E-06  0.406E-04    0.75      20.0  T
   9   -260.7726734 -0.319424E-07  0.191E-04    0.75      42.4  T
     SCC iter.                  ...        0 min,  0.421 sec
     gradient                   ...        0 min,  0.237 sec
 * total energy  :  -256.1319429 Eh     change       -0.1749671E-01 Eh
   gradient norm :     0.0240125 Eh/α   predicted    -0.1741334E-01 (  -0.48%)
   displ. norm   :     0.8849213 α      lambda       -0.1596333E-01
   maximum displ.:     0.3645397 α      in ANC's #30, #18, #28, ...

........................................................................
.............................. CYCLE   10 ..............................
........................................................................
   1   -260.7938232 -0.260794E+03  0.169E-01    0.79       0.0  T
   2   -260.7938522 -0.290181E-04  0.982E-02    0.79       1.0  T
   3   -260.7936326  0.219651E-03  0.320E-02    0.80       1.0  T
   4   -260.7938451 -0.212511E-03  0.102E-02    0.79       1.0  T
   5   -260.7938730 -0.278983E-04  0.306E-03    0.79       2.7  T
   6   -260.7938736 -0.628347E-06  0.225E-03    0.79       3.6  T
   7   -260.7938746 -0.104809E-05  0.963E-04    0.79       8.4  T
   8   -260.7938748 -0.167871E-06  0.405E-04    0.79      20.0  T
   9   -260.7938748 -0.310293E-07  0.165E-04    0.79      49.0  T
     SCC iter.                  ...        0 min,  0.422 sec
     gradient                   ...        0 min,  0.240 sec
 * total energy  :  -256.1461904 Eh     change       -0.1424750E-01 Eh
   gradient norm :     0.0222124 Eh/α   predicted    -0.1423200E-01 (  -0.11%)
   displ. norm   :     0.8828802 α      lambda       -0.1345606E-01
   maximum displ.:     0.3819089 α      in ANC's #30, #18, #28, ...

........................................................................
.............................. CYCLE   11 ..............................
........................................................................
   1   -260.8122244 -0.260812E+03  0.165E-01    0.82       0.0  T
   2   -260.8122467 -0.223067E-04  0.964E-02    0.82       1.0  T
   3   -260.8119955  0.251182E-03  0.349E-02    0.82       1.0  T
   4   -260.8122476 -0.252059E-03  0.934E-03    0.82       1.0  T
   5   -260.8122676 -0.200212E-04  0.255E-03    0.82       3.2  T
   6   -260.8122677 -0.938222E-07  0.190E-03    0.82       4.3  T
   7   -260.8122682 -0.552911E-06  0.986E-04    0.82       8.2  T
   8   -260.8122684 -0.214267E-06  0.390E-04    0.82      20.8  T
     SCC iter.                  ...        0 min,  0.374 sec
     gradient                   ...        0 min,  0.238 sec
 * total energy  :  -256.1579240 Eh     change       -0.1173361E-01 Eh
   gradient norm :     0.0201301 Eh/α   predicted    -0.1197239E-01 (   2.03%)
   displ. norm   :     0.8760410 α      lambda       -0.1152084E-01
   maximum displ.:     0.3967217 α      in ANC's #18, #30, #28, ...

........................................................................
.............................. CYCLE   12 ..............................
........................................................................
   1   -260.8284974 -0.260828E+03  0.169E-01    0.83       0.0  T
   2   -260.8285141 -0.166502E-04  0.994E-02    0.83       1.0  T
   3   -260.8283513  0.162764E-03  0.299E-02    0.84       1.0  T
   4   -260.8285207 -0.169439E-03  0.683E-03    0.83       1.2  T
   5   -260.8285289 -0.818595E-05  0.226E-03    0.83       3.6  T
   6   -260.8285291 -0.162999E-06  0.145E-03    0.83       5.6  T
   7   -260.8285293 -0.207488E-06  0.757E-04    0.83      10.7  T
   8   -260.8285294 -0.107223E-06  0.279E-04    0.83      29.1  T
     SCC iter.                  ...        0 min,  0.374 sec
     gradient                   ...        0 min,  0.238 sec
 * total energy  :  -256.1679888 Eh     change       -0.1006484E-01 Eh
   gradient norm :     0.0178817 Eh/α   predicted    -0.1018124E-01 (   1.16%)
   displ. norm   :     0.8608094 α      lambda       -0.9721592E-02
   maximum displ.:     0.4218498 α      in ANC's #18, #30, #28, ...

........................................................................
.............................. CYCLE   13 ..............................
........................................................................
   1   -260.8455847 -0.260846E+03  0.140E-01    0.84       0.0  T
   2   -260.8455962 -0.114592E-04  0.819E-02    0.84       1.0  T
   3   -260.8454808  0.115397E-03  0.218E-02    0.85       1.0  T
   4   -260.8455962 -0.115435E-03  0.645E-03    0.84       1.3  T
   5   -260.8456060 -0.979030E-05  0.167E-03    0.84       4.9  T
   6   -260.8456061 -0.196765E-07  0.105E-03    0.84       7.8  T
   7   -260.8456061 -0.780220E-07  0.595E-04    0.84      13.6  T
   8   -260.8456062 -0.798726E-07  0.219E-04    0.84      37.0  T
     SCC iter.                  ...        0 min,  0.374 sec
     gradient                   ...        0 min,  0.239 sec
 * total energy  :  -256.1768172 Eh     change       -0.8828406E-02 Eh
   gradient norm :     0.0161985 Eh/α   predicted    -0.8462634E-02 (  -4.14%)
   displ. norm   :     0.8705663 α      lambda       -0.8939518E-02
   maximum displ.:     0.4610565 α      in ANC's #18, #30, #28, ...

........................................................................
.............................. CYCLE   14 ..............................
........................................................................
   1   -260.8593634 -0.260859E+03  0.141E-01    0.85       0.0  T
   2   -260.8593734 -0.997472E-05  0.823E-02    0.84       1.0  T
   3   -260.8593070  0.664280E-04  0.171E-02    0.85       1.0  T
   4   -260.8593706 -0.636202E-04  0.600E-03    0.84       1.4  T
   5   -260.8593801 -0.948324E-05  0.178E-03    0.84       4.6  T
   6   -260.8593800  0.105123E-06  0.140E-03    0.84       5.8  T
   7   -260.8593804 -0.464795E-06  0.556E-04    0.84      14.6  T
   8   -260.8593805 -0.705105E-07  0.171E-04    0.84      47.4  T
     SCC iter.                  ...        0 min,  0.376 sec
     gradient                   ...        0 min,  0.241 sec
 * total energy  :  -256.1850470 Eh     change       -0.8229822E-02 Eh
   gradient norm :     0.0143641 Eh/α   predicted    -0.7857330E-02 (  -4.53%)
   displ. norm   :     0.8887279 α      lambda       -0.8424903E-02
   maximum displ.:     0.4838358 α      in ANC's #18, #30, #28, ...

........................................................................
.............................. CYCLE   15 ..............................
........................................................................
   1   -260.8730174 -0.260873E+03  0.149E-01    0.85       0.0  T
   2   -260.8730268 -0.933610E-05  0.872E-02    0.85       1.0  T
   3   -260.8729219  0.104840E-03  0.211E-02    0.85       1.0  T
   4   -260.8730292 -0.107306E-03  0.554E-03    0.85       1.5  T
   5   -260.8730361 -0.685807E-05  0.170E-03    0.85       4.8  T
   6   -260.8730362 -0.981166E-07  0.843E-04    0.85       9.6  T
   7   -260.8730362 -0.619189E-07  0.349E-04    0.85      23.3  T
     SCC iter.                  ...        0 min,  0.328 sec
     gradient                   ...        0 min,  0.238 sec
 * total energy  :  -256.1926890 Eh     change       -0.7641994E-02 Eh
   gradient norm :     0.0176391 Eh/α   predicted    -0.7539607E-02 (  -1.34%)
   displ. norm   :     0.9040685 α      lambda       -0.7973806E-02
   maximum displ.:     0.5184923 α      in ANC's #18, #30, #28, ...

........................................................................
.............................. CYCLE   16 ..............................
........................................................................
   1   -260.8717103 -0.260872E+03  0.153E-01    0.85       0.0  T
   2   -260.8717214 -0.110789E-04  0.891E-02    0.85       1.0  T
   3   -260.8715876  0.133816E-03  0.233E-02    0.85       1.0  T
   4   -260.8717185 -0.130891E-03  0.677E-03    0.85       1.2  T
   5   -260.8717322 -0.137311E-04  0.226E-03    0.85       3.6  T
   6   -260.8717326 -0.438465E-06  0.149E-03    0.85       5.4  T
   7   -260.8717330 -0.348195E-06  0.561E-04    0.85      14.5  T
   8   -260.8717330 -0.604081E-07  0.186E-04    0.85      43.5  T
     SCC iter.                  ...        0 min,  0.376 sec
     gradient                   ...        0 min,  0.238 sec
 * total energy  :  -256.1995169 Eh     change       -0.6827839E-02 Eh
   gradient norm :     0.0201254 Eh/α   predicted    -0.7245568E-02 (   6.12%)
   displ. norm   :     0.8694949 α      lambda       -0.6983049E-02
   maximum displ.:     0.4947630 α      in ANC's #18, #30, #28, ...

........................................................................
.............................. CYCLE   17 ..............................
........................................................................
   1   -260.8779392 -0.260878E+03  0.149E-01    0.85       0.0  T
   2   -260.8779517 -0.124859E-04  0.872E-02    0.85       1.0  T
   3   -260.8778915  0.602071E-04  0.172E-02    0.85       1.0  T
   4   -260.8779536 -0.620614E-04  0.481E-03    0.85       1.7  T
   5   -260.8779586 -0.500647E-05  0.225E-03    0.85       3.6  T
   6   -260.8779595 -0.932955E-06  0.997E-04    0.85       8.1  T
   7   -260.8779595 -0.426476E-07  0.565E-04    0.85      14.4  T
     SCC iter.                  ...        0 min,  0.329 sec
     gradient                   ...        0 min,  0.237 sec
 * total energy  :  -256.2055321 Eh     change       -0.6015224E-02 Eh
   gradient norm :     0.0171520 Eh/α   predicted    -0.6131201E-02 (   1.93%)
   displ. norm   :     0.8738398 α      lambda       -0.6129122E-02
   maximum displ.:     0.5210019 α      in ANC's #18, #30, #28, ...

........................................................................
.............................. CYCLE   18 ..............................
........................................................................
   1   -260.8806288 -0.260881E+03  0.147E-01    0.85       0.0  T
   2   -260.8806372 -0.837892E-05  0.857E-02    0.85       1.0  T
   3   -260.8804795  0.157706E-03  0.257E-02    0.85       1.0  T
   4   -260.8806432 -0.163733E-03  0.501E-03    0.85       1.6  T
   5   -260.8806490 -0.579979E-05  0.197E-03    0.85       4.1  T
   6   -260.8806492 -0.221969E-06  0.135E-03    0.85       6.0  T
   7   -260.8806495 -0.302300E-06  0.575E-04    0.85      14.1  T
   8   -260.8806496 -0.752223E-07  0.196E-04    0.85      41.3  T
     SCC iter.                  ...        0 min,  0.376 sec
     gradient                   ...        0 min,  0.238 sec
 * total energy  :  -256.2106970 Eh     change       -0.5164946E-02 Eh
   gradient norm :     0.0182730 Eh/α   predicted    -0.5404654E-02 (   4.64%)
   displ. norm   :     0.8558802 α      lambda       -0.5385035E-02
   maximum displ.:     0.5355293 α      in ANC's #18, #28, #30, ...

........................................................................
.............................. CYCLE   19 ..............................
........................................................................
   1   -260.8867690 -0.260887E+03  0.137E-01    0.85       0.0  T
   2   -260.8867754 -0.635977E-05  0.800E-02    0.85       1.0  T
   3   -260.8866176  0.157816E-03  0.241E-02    0.85       1.0  T
   4   -260.8867774 -0.159807E-03  0.555E-03    0.85       1.5  T
   5   -260.8867858 -0.848350E-05  0.187E-03    0.85       4.3  T
   6   -260.8867862 -0.358810E-06  0.118E-03    0.85       6.9  T
   7   -260.8867864 -0.150623E-06  0.555E-04    0.85      14.6  T
   8   -260.8867864 -0.677495E-07  0.209E-04    0.85      38.9  T
     SCC iter.                  ...        0 min,  0.376 sec
     gradient                   ...        0 min,  0.238 sec
 * total energy  :  -256.2152645 Eh     change       -0.4567422E-02 Eh
   gradient norm :     0.0197958 Eh/α   predicted    -0.4664882E-02 (   2.13%)
   displ. norm   :     0.8437450 α      lambda       -0.5270723E-02
   maximum displ.:     0.5318156 α      in ANC's #18, #28, #30, ...

........................................................................
.............................. CYCLE   20 ..............................
........................................................................
   1   -260.8979062 -0.260898E+03  0.133E-01    0.85       0.0  T
   2   -260.8979107 -0.454060E-05  0.780E-02    0.85       1.0  T
   3   -260.8976782  0.232466E-03  0.298E-02    0.85       1.0  T
   4   -260.8979190 -0.240789E-03  0.530E-03    0.85       1.5  T
   5   -260.8979252 -0.614587E-05  0.220E-03    0.85       3.7  T
   6   -260.8979259 -0.729534E-06  0.132E-03    0.85       6.1  T
   7   -260.8979261 -0.207318E-06  0.673E-04    0.85      12.1  T
   8   -260.8979262 -0.927412E-07  0.217E-04    0.85      37.4  T
     SCC iter.                  ...        0 min,  0.376 sec
     gradient                   ...        0 min,  0.242 sec
 * total energy  :  -256.2191006 Eh     change       -0.3836126E-02 Eh
   gradient norm :     0.0252637 Eh/α   predicted    -0.4511489E-02 (  17.61%)
   displ. norm   :     0.7942750 α      lambda       -0.4561166E-02
   maximum displ.:     0.5310681 α      in ANC's #18, #30, #28, ...
 * RMSD in coord.:     1.1108550 α      energy gain  -0.5108757E+00 Eh

generating ANC from model Hessian ...
Using Lindh-Hessian (1995)
 Shifting diagonal of input Hessian by    1.0046279483294573E-002
 Lowest  eigenvalues of input Hessian
    0.010000    0.000000    0.000000    0.000000    0.000000    0.000000
    0.000000    0.010049    0.010053    0.010056    0.010063    0.010066
    0.010086    0.010103    0.010130    0.010282    0.010432    0.010544
 Highest eigenvalues
    2.232774    2.235205    2.245599    2.657146    2.668254    2.670935


........................................................................
.............................. CYCLE   21 ..............................
........................................................................
   1   -260.8895341 -0.260890E+03  0.122E-01    0.85       0.0  T
   2   -260.8895398 -0.576784E-05  0.713E-02    0.85       1.0  T
   3   -260.8894458  0.940801E-04  0.203E-02    0.85       1.0  T
   4   -260.8895441 -0.983756E-04  0.402E-03    0.85       2.0  T
   5   -260.8895474 -0.329353E-05  0.147E-03    0.85       5.5  T
   6   -260.8895474  0.132409E-07  0.112E-03    0.85       7.3  T
   7   -260.8895476 -0.217460E-06  0.379E-04    0.85      21.4  T
   8   -260.8895477 -0.280106E-07  0.157E-04    0.85      51.7  T
     SCC iter.                  ...        0 min,  0.375 sec
     gradient                   ...        0 min,  0.237 sec
 * total energy  :  -256.2227842 Eh     change       -0.3683637E-02 Eh
   gradient norm :     0.0167941 Eh/α   predicted     0.0000000E+00 (-100.00%)
   displ. norm   :     0.3445427 α      lambda       -0.2054007E-02
   maximum displ.:     0.2590440 α      in ANC's #17, #23, #14, ...

........................................................................
.............................. CYCLE   22 ..............................
........................................................................
   1   -260.9025700 -0.260903E+03  0.558E-02    0.85       0.0  T
   2   -260.9025719 -0.191225E-05  0.327E-02    0.85       1.0  T
   3   -260.9025580  0.138714E-04  0.850E-03    0.85       1.0  T
   4   -260.9025722 -0.141845E-04  0.208E-03    0.85       3.9  T
   5   -260.9025731 -0.930978E-06  0.849E-04    0.85       9.6  T
   6   -260.9025732 -0.109883E-06  0.522E-04    0.85      15.5  T
     SCC iter.                  ...        0 min,  0.283 sec
     gradient                   ...        0 min,  0.239 sec
 * total energy  :  -256.2246089 Eh     change       -0.1824718E-02 Eh
   gradient norm :     0.0081804 Eh/α   predicted    -0.1148938E-02 ( -37.03%)
   displ. norm   :     0.6475830 α      lambda       -0.2964961E-02
   maximum displ.:     0.4538658 α      in ANC's #17, #23, #14, ...

........................................................................
.............................. CYCLE   23 ..............................
........................................................................
   1   -260.9127399 -0.260913E+03  0.965E-02    0.84       0.0  T
   2   -260.9127439 -0.400194E-05  0.566E-02    0.84       1.0  T
   3   -260.9127158  0.281446E-04  0.117E-02    0.84       1.0  T
   4   -260.9127446 -0.287735E-04  0.298E-03    0.84       2.7  T
   5   -260.9127466 -0.205481E-05  0.126E-03    0.84       6.4  T
   6   -260.9127469 -0.274651E-06  0.702E-04    0.84      11.6  T
   7   -260.9127470 -0.519113E-07  0.385E-04    0.84      21.1  T
     SCC iter.                  ...        0 min,  0.329 sec
     gradient                   ...        0 min,  0.237 sec
 * total energy  :  -256.2272344 Eh     change       -0.2625410E-02 Eh
   gradient norm :     0.0069515 Eh/α   predicted    -0.2104180E-02 ( -19.85%)
   displ. norm   :     0.7363349 α      lambda       -0.2753007E-02
   maximum displ.:     0.5119467 α      in ANC's #17, #23, #14, ...

........................................................................
.............................. CYCLE   24 ..............................
........................................................................
   1   -260.9138944 -0.260914E+03  0.107E-01    0.84       0.0  T
   2   -260.9138976 -0.313332E-05  0.625E-02    0.84       1.0  T
   3   -260.9138747  0.228534E-04  0.967E-03    0.84       1.0  T
   4   -260.9138987 -0.239642E-04  0.257E-03    0.84       3.2  T
   5   -260.9139001 -0.136613E-05  0.110E-03    0.84       7.4  T
   6   -260.9139001 -0.677205E-07  0.676E-04    0.84      12.0  T
   7   -260.9139002 -0.593062E-07  0.295E-04    0.84      27.5  T
     SCC iter.                  ...        0 min,  0.330 sec
     gradient                   ...        0 min,  0.238 sec
 * total energy  :  -256.2297607 Eh     change       -0.2526310E-02 Eh
   gradient norm :     0.0094054 Eh/α   predicted    -0.2122828E-02 ( -15.97%)
   displ. norm   :     0.7475946 α      lambda       -0.2504461E-02
   maximum displ.:     0.5220382 α      in ANC's #17, #23, #14, ...

........................................................................
.............................. CYCLE   25 ..............................
........................................................................
   1   -260.9126320 -0.260913E+03  0.104E-01    0.84       0.0  T
   2   -260.9126346 -0.269098E-05  0.610E-02    0.84       1.0  T
   3   -260.9126171  0.175492E-04  0.835E-03    0.84       1.0  T
   4   -260.9126355 -0.184311E-04  0.236E-03    0.84       3.4  T
   5   -260.9126367 -0.119629E-05  0.984E-04    0.84       8.2  T
   6   -260.9126367  0.109746E-07  0.712E-04    0.84      11.4  T
   7   -260.9126368 -0.107085E-06  0.221E-04    0.84      36.7  T
     SCC iter.                  ...        0 min,  0.329 sec
     gradient                   ...        0 min,  0.239 sec
 * total energy  :  -256.2320657 Eh     change       -0.2305033E-02 Eh
   gradient norm :     0.0081263 Eh/α   predicted    -0.1952100E-02 ( -15.31%)
   displ. norm   :     0.7369692 α      lambda       -0.2235358E-02
   maximum displ.:     0.5226614 α      in ANC's #17, #14, #10, ...

........................................................................
.............................. CYCLE   26 ..............................
........................................................................
   1   -260.9123555 -0.260912E+03  0.995E-02    0.84       0.0  T
   2   -260.9123579 -0.245473E-05  0.583E-02    0.84       1.0  T
   3   -260.9123341  0.238681E-04  0.970E-03    0.84       1.0  T
   4   -260.9123587 -0.246094E-04  0.246E-03    0.84       3.3  T
   5   -260.9123601 -0.145500E-05  0.972E-04    0.84       8.3  T
   6   -260.9123602 -0.493734E-07  0.676E-04    0.84      12.0  T
   7   -260.9123603 -0.855350E-07  0.245E-04    0.84      33.0  T
     SCC iter.                  ...        0 min,  0.330 sec
     gradient                   ...        0 min,  0.237 sec
 * total energy  :  -256.2341067 Eh     change       -0.2041021E-02 Eh
   gradient norm :     0.0061137 Eh/α   predicted    -0.1724733E-02 ( -15.50%)
   displ. norm   :     0.7262820 α      lambda       -0.1957440E-02
   maximum displ.:     0.5264075 α      in ANC's #17, #10, #14, ...

........................................................................
.............................. CYCLE   27 ..............................
........................................................................
   1   -260.9142392 -0.260914E+03  0.938E-02    0.84       0.0  T
   2   -260.9142415 -0.228657E-05  0.550E-02    0.84       1.0  T
   3   -260.9142201  0.214438E-04  0.928E-03    0.84       1.0  T
   4   -260.9142422 -0.221477E-04  0.231E-03    0.84       3.5  T
   5   -260.9142435 -0.126061E-05  0.938E-04    0.84       8.6  T
   6   -260.9142436 -0.695632E-07  0.613E-04    0.84      13.2  T
   7   -260.9142436 -0.633343E-07  0.251E-04    0.84      32.3  T
     SCC iter.                  ...        0 min,  0.328 sec
     gradient                   ...        0 min,  0.237 sec
 * total energy  :  -256.2358832 Eh     change       -0.1776516E-02 Eh
   gradient norm :     0.0053659 Eh/α   predicted    -0.1494981E-02 ( -15.85%)
   displ. norm   :     0.7191745 α      lambda       -0.1697237E-02
   maximum displ.:     0.5289760 α      in ANC's #17, #10, #12, ...

........................................................................
.............................. CYCLE   28 ..............................
........................................................................
   1   -260.9162588 -0.260916E+03  0.897E-02    0.84       0.0  T
   2   -260.9162608 -0.203217E-05  0.525E-02    0.84       1.0  T
   3   -260.9162372  0.235827E-04  0.950E-03    0.84       1.0  T
   4   -260.9162619 -0.246921E-04  0.207E-03    0.84       3.9  T
   5   -260.9162628 -0.881686E-06  0.957E-04    0.84       8.5  T
   6   -260.9162629 -0.566785E-07  0.603E-04    0.84      13.4  T
     SCC iter.                  ...        0 min,  0.283 sec
     gradient                   ...        0 min,  0.236 sec
 * total energy  :  -256.2374280 Eh     change       -0.1544763E-02 Eh
   gradient norm :     0.0056393 Eh/α   predicted    -0.1287535E-02 ( -16.65%)
   displ. norm   :     0.7168349 α      lambda       -0.1504004E-02
   maximum displ.:     0.5320635 α      in ANC's #17, #10, #12, ...

........................................................................
.............................. CYCLE   29 ..............................
........................................................................
   1   -260.9192513 -0.260919E+03  0.861E-02    0.84       0.0  T
   2   -260.9192536 -0.230587E-05  0.504E-02    0.84       1.0  T
   3   -260.9192363  0.173068E-04  0.805E-03    0.84       1.0  T
   4   -260.9192547 -0.184160E-04  0.197E-03    0.84       4.1  T
   5   -260.9192554 -0.658139E-06  0.105E-03    0.84       7.8  T
   6   -260.9192555 -0.887068E-07  0.558E-04    0.84      14.5  T
   7   -260.9192555 -0.629226E-07  0.182E-04    0.84      44.5  T
     SCC iter.                  ...        0 min,  0.331 sec
     gradient                   ...        0 min,  0.238 sec
 * total energy  :  -256.2388009 Eh     change       -0.1372931E-02 Eh
   gradient norm :     0.0057643 Eh/α   predicted    -0.1138422E-02 ( -17.08%)
   displ. norm   :     0.7321733 α      lambda       -0.1374055E-02
   maximum displ.:     0.5430867 α      in ANC's #17, #12, #10, ...

........................................................................
.............................. CYCLE   30 ..............................
........................................................................
   1   -260.9205017 -0.260921E+03  0.881E-02    0.83       0.0  T
   2   -260.9205044 -0.272341E-05  0.516E-02    0.83       1.0  T
   3   -260.9204818  0.226481E-04  0.914E-03    0.83       1.0  T
   4   -260.9205061 -0.243607E-04  0.200E-03    0.83       4.1  T
   5   -260.9205066 -0.441659E-06  0.120E-03    0.83       6.7  T
   6   -260.9205067 -0.157461E-06  0.565E-04    0.83      14.3  T
   7   -260.9205068 -0.637583E-07  0.169E-04    0.83      47.9  T
     SCC iter.                  ...        0 min,  0.329 sec
     gradient                   ...        0 min,  0.237 sec
 * total energy  :  -256.2400434 Eh     change       -0.1242474E-02 Eh
   gradient norm :     0.0052939 Eh/α   predicted    -0.1055332E-02 ( -15.06%)
   displ. norm   :     0.7497488 α      lambda       -0.1237681E-02
   maximum displ.:     0.5574919 α      in ANC's #17, #12, #10, ...

........................................................................
.............................. CYCLE   31 ..............................
........................................................................
   1   -260.9233679 -0.260923E+03  0.902E-02    0.83       0.0  T
   2   -260.9233716 -0.362895E-05  0.527E-02    0.83       1.0  T
   3   -260.9233585  0.130520E-04  0.759E-03    0.83       1.1  T
   4   -260.9233730 -0.144966E-04  0.215E-03    0.83       3.8  T
   5   -260.9233735 -0.477802E-06  0.130E-03    0.83       6.2  T
   6   -260.9233737 -0.217233E-06  0.564E-04    0.83      14.4  T
   7   -260.9233738 -0.671328E-07  0.192E-04    0.83      42.3  T
     SCC iter.                  ...        0 min,  0.329 sec
     gradient                   ...        0 min,  0.237 sec
 * total energy  :  -256.2411296 Eh     change       -0.1086207E-02 Eh
   gradient norm :     0.0060524 Eh/α   predicted    -0.9667055E-03 ( -11.00%)
   displ. norm   :     0.7730645 α      lambda       -0.1068567E-02
   maximum displ.:     0.5710930 α      in ANC's #17, #12, #10, ...

........................................................................
.............................. CYCLE   32 ..............................
........................................................................
   1   -260.9218452 -0.260922E+03  0.945E-02    0.83       0.0  T
   2   -260.9218490 -0.382271E-05  0.553E-02    0.83       1.0  T
   3   -260.9218271  0.219125E-04  0.909E-03    0.83       1.0  T
   4   -260.9218508 -0.237628E-04  0.232E-03    0.83       3.5  T
   5   -260.9218514 -0.523641E-06  0.145E-03    0.83       5.6  T
   6   -260.9218517 -0.300156E-06  0.643E-04    0.83      12.6  T
   7   -260.9218517 -0.844819E-07  0.206E-04    0.83      39.3  T
     SCC iter.                  ...        0 min,  0.330 sec
     gradient                   ...        0 min,  0.237 sec
 * total energy  :  -256.2420301 Eh     change       -0.9005350E-03 Eh
   gradient norm :     0.0051956 Eh/α   predicted    -0.8535954E-03 (  -5.21%)
   displ. norm   :     0.7710858 α      lambda       -0.8225100E-03
   maximum displ.:     0.5689365 α      in ANC's #17, #12, #10, ...

........................................................................
.............................. CYCLE   33 ..............................
........................................................................
   1   -260.9226753 -0.260923E+03  0.927E-02    0.83       0.0  T
   2   -260.9226794 -0.410783E-05  0.542E-02    0.83       1.0  T
   3   -260.9226717  0.774178E-05  0.647E-03    0.83       1.3  T
   4   -260.9226810 -0.932806E-05  0.207E-03    0.83       3.9  T
   5   -260.9226813 -0.279256E-06  0.129E-03    0.83       6.3  T
   6   -260.9226815 -0.211446E-06  0.540E-04    0.83      15.0  T
   7   -260.9226816 -0.654462E-07  0.176E-04    0.83      46.1  T
     SCC iter.                  ...        0 min,  0.331 sec
     gradient                   ...        0 min,  0.236 sec
 * total energy  :  -256.2427012 Eh     change       -0.6710551E-03 Eh
   gradient norm :     0.0038853 Eh/α   predicted    -0.6557813E-03 (  -2.28%)
   displ. norm   :     0.7077128 α      lambda       -0.5372897E-03
   maximum displ.:     0.5118029 α      in ANC's #17, #12, #10, ...

........................................................................
.............................. CYCLE   34 ..............................
........................................................................
   1   -260.9228381 -0.260923E+03  0.845E-02    0.82       0.0  T
   2   -260.9228413 -0.324333E-05  0.494E-02    0.82       1.0  T
   3   -260.9228303  0.110088E-04  0.692E-03    0.82       1.2  T
   4   -260.9228427 -0.123964E-04  0.195E-03    0.82       4.2  T
   5   -260.9228429 -0.188730E-06  0.136E-03    0.82       6.0  T
   6   -260.9228433 -0.329531E-06  0.559E-04    0.82      14.5  T
   7   -260.9228433 -0.779527E-07  0.163E-04    0.82      49.8  T
     SCC iter.                  ...        0 min,  0.330 sec
     gradient                   ...        0 min,  0.237 sec
 * total energy  :  -256.2431244 Eh     change       -0.4232161E-03 Eh
   gradient norm :     0.0032521 Eh/α   predicted    -0.4031979E-03 (  -4.73%)
   displ. norm   :     0.5990531 α      lambda       -0.3115851E-03
   maximum displ.:     0.4172198 α      in ANC's #17, #12, #10, ...

........................................................................
.............................. CYCLE   35 ..............................
........................................................................
   1   -260.9244503 -0.260924E+03  0.702E-02    0.82       0.0  T
   2   -260.9244526 -0.229202E-05  0.410E-02    0.82       1.0  T
   3   -260.9244424  0.102626E-04  0.663E-03    0.82       1.2  T
   4   -260.9244536 -0.112670E-04  0.174E-03    0.82       4.7  T
   5   -260.9244539 -0.253181E-06  0.114E-03    0.82       7.1  T
   6   -260.9244541 -0.190820E-06  0.563E-04    0.82      14.4  T
   7   -260.9244542 -0.812715E-07  0.149E-04    0.82      54.5  T
     SCC iter.                  ...        0 min,  0.329 sec
     gradient                   ...        0 min,  0.237 sec
 * total energy  :  -256.2433577 Eh     change       -0.2332849E-03 Eh
   gradient norm :     0.0025376 Eh/α   predicted    -0.2117017E-03 (  -9.25%)
   displ. norm   :     0.4555754 α      lambda       -0.1624880E-03
   maximum displ.:     0.2955077 α      in ANC's #17, #12, #10, ...

........................................................................
.............................. CYCLE   36 ..............................
........................................................................
   1   -260.9265385 -0.260927E+03  0.525E-02    0.82       0.0  T
   2   -260.9265398 -0.124663E-05  0.307E-02    0.82       1.0  T
   3   -260.9265306  0.918416E-05  0.626E-03    0.82       1.3  T
   4   -260.9265405 -0.992600E-05  0.135E-03    0.82       6.0  T
   5   -260.9265407 -0.163797E-06  0.873E-04    0.82       9.3  T
   6   -260.9265408 -0.952443E-07  0.478E-04    0.82      17.0  T
     SCC iter.                  ...        0 min,  0.282 sec
     gradient                   ...        0 min,  0.237 sec
 * total energy  :  -256.2434739 Eh     change       -0.1161990E-03 Eh
   gradient norm :     0.0021865 Eh/α   predicted    -0.9810794E-04 ( -15.57%)
   displ. norm   :     0.3286978 α      lambda       -0.9604041E-04
   maximum displ.:     0.1832938 α      in ANC's #17, #12, #10, ...

........................................................................
.............................. CYCLE   37 ..............................
........................................................................
   1   -260.9284547 -0.260928E+03  0.360E-02    0.82       0.0  T
   2   -260.9284553 -0.586937E-06  0.210E-02    0.82       1.0  T
   3   -260.9284479  0.740763E-05  0.550E-03    0.82       1.5  T
   4   -260.9284557 -0.782780E-05  0.111E-03    0.82       7.3  T
   5   -260.9284559 -0.185159E-06  0.630E-04    0.82      12.9  T
   6   -260.9284560 -0.480577E-07  0.359E-04    0.82      22.6  T
     SCC iter.                  ...        0 min,  0.283 sec
     gradient                   ...        0 min,  0.237 sec
 * total energy  :  -256.2435412 Eh     change       -0.6726461E-04 Eh
   gradient norm :     0.0022133 Eh/α   predicted    -0.5320915E-04 ( -20.90%)
   displ. norm   :     0.2664616 α      lambda       -0.8378220E-04
   maximum displ.:     0.1033226 α      in ANC's #17, #12, #5, ...

........................................................................
.............................. CYCLE   38 ..............................
........................................................................
   1   -260.9299495 -0.260930E+03  0.270E-02    0.82       0.0  T
   2   -260.9299498 -0.324905E-06  0.158E-02    0.82       1.0  T
   3   -260.9299427  0.713237E-05  0.556E-03    0.82       1.5  T
   4   -260.9299502 -0.752831E-05  0.954E-04    0.82       8.5  T
   5   -260.9299503 -0.150259E-06  0.480E-04    0.82      16.9  T
   6   -260.9299504 -0.229728E-07  0.304E-04    0.82      26.7  T
     SCC iter.                  ...        0 min,  0.283 sec
     gradient                   ...        0 min,  0.238 sec
 * total energy  :  -256.2436043 Eh     change       -0.6315158E-04 Eh
   gradient norm :     0.0023605 Eh/α   predicted    -0.4486579E-04 ( -28.96%)
   displ. norm   :     0.2559672 α      lambda       -0.9632630E-04
   maximum displ.:     0.1177729 α      in ANC's #5, #13, #12, ...

........................................................................
.............................. CYCLE   39 ..............................
........................................................................
   1   -260.9306942 -0.260931E+03  0.247E-02    0.82       0.0  T
   2   -260.9306945 -0.266531E-06  0.146E-02    0.82       1.0  T
   3   -260.9306885  0.604702E-05  0.547E-03    0.82       1.5  T
   4   -260.9306950 -0.649127E-05  0.784E-04    0.82      10.3  T
   5   -260.9306950 -0.720887E-07  0.361E-04    0.82      22.4  T
   6   -260.9306950 -0.154500E-08  0.235E-04    0.82      34.5  T
     SCC iter.                  ...        0 min,  0.283 sec
     gradient                   ...        0 min,  0.237 sec
 * total energy  :  -256.2436816 Eh     change       -0.7725306E-04 Eh
   gradient norm :     0.0026685 Eh/α   predicted    -0.5131930E-04 ( -33.57%)
   displ. norm   :     0.3386512 α      lambda       -0.1280516E-03
   maximum displ.:     0.1631757 α      in ANC's #5, #13, #7, ...

........................................................................
.............................. CYCLE   40 ..............................
........................................................................
   1   -260.9285584 -0.260929E+03  0.341E-02    0.82       0.0  T
   2   -260.9285589 -0.516984E-06  0.200E-02    0.82       1.0  T
   3   -260.9285490  0.987875E-05  0.703E-03    0.82       1.2  T
   4   -260.9285596 -0.105528E-04  0.112E-03    0.82       7.3  T
   5   -260.9285598 -0.169614E-06  0.499E-04    0.82      16.2  T
   6   -260.9285598 -0.814458E-08  0.304E-04    0.82      26.7  T
     SCC iter.                  ...        0 min,  0.283 sec
     gradient                   ...        0 min,  0.237 sec
 * total energy  :  -256.2437738 Eh     change       -0.9223946E-04 Eh
   gradient norm :     0.0030815 Eh/α   predicted    -0.7137191E-04 ( -22.62%)
   displ. norm   :     0.3207079 α      lambda       -0.1032704E-03
   maximum displ.:     0.1527466 α      in ANC's #5, #17, #13, ...

........................................................................
.............................. CYCLE   41 ..............................
........................................................................
   1   -260.9270002 -0.260927E+03  0.332E-02    0.82       0.0  T
   2   -260.9270006 -0.371168E-06  0.195E-02    0.82       1.0  T
   3   -260.9269905  0.101073E-04  0.635E-03    0.82       1.3  T
   4   -260.9270010 -0.105572E-04  0.117E-03    0.82       6.9  T
   5   -260.9270013 -0.260299E-06  0.521E-04    0.82      15.6  T
   6   -260.9270013 -0.168602E-07  0.314E-04    0.82      25.8  T
     SCC iter.                  ...        0 min,  0.284 sec
     gradient                   ...        0 min,  0.237 sec
 * total energy  :  -256.2438443 Eh     change       -0.7052401E-04 Eh
   gradient norm :     0.0032086 Eh/α   predicted    -0.5694778E-04 ( -19.25%)
   displ. norm   :     0.2699191 α      lambda       -0.8406950E-04
   maximum displ.:     0.1298208 α      in ANC's #5, #17, #7, ...

........................................................................
.............................. CYCLE   42 ..............................
........................................................................
   1   -260.9247968 -0.260925E+03  0.272E-02    0.82       0.0  T
   2   -260.9247971 -0.220204E-06  0.160E-02    0.82       1.0  T
   3   -260.9247892  0.784574E-05  0.531E-03    0.82       1.5  T
   4   -260.9247974 -0.814343E-05  0.977E-04    0.82       8.3  T
   5   -260.9247976 -0.204036E-06  0.428E-04    0.82      19.0  T
   6   -260.9247976 -0.134419E-07  0.260E-04    0.82      31.3  T
     SCC iter.                  ...        0 min,  0.282 sec
     gradient                   ...        0 min,  0.235 sec
 * total energy  :  -256.2439095 Eh     change       -0.6511855E-04 Eh
   gradient norm :     0.0029546 Eh/α   predicted    -0.4510142E-04 ( -30.74%)
   displ. norm   :     0.3178745 α      lambda       -0.1145623E-03
   maximum displ.:     0.1561456 α      in ANC's #5, #7, #17, ...
 * RMSD in coord.:     0.8333017 α      energy gain  -0.2480886E-01 Eh

generating ANC from model Hessian ...
Using Lindh-Hessian (1995)
 Shifting diagonal of input Hessian by    9.9996910475646118E-003
 Lowest  eigenvalues of input Hessian
    0.000000    0.000000    0.000000    0.000000    0.000000    0.000000
    0.010000    0.010006    0.010008    0.010014    0.010020    0.010022
    0.010038    0.010073    0.010128    0.010244    0.010399    0.010536
 Highest eigenvalues
    2.240582    2.247176    2.247490    2.669774    2.670450    2.672066


........................................................................
.............................. CYCLE   43 ..............................
........................................................................
   1   -260.9238313 -0.260924E+03  0.305E-02    0.82       0.0  T
   2   -260.9238316 -0.334853E-06  0.179E-02    0.82       1.0  T
   3   -260.9238203  0.112750E-04  0.620E-03    0.82       1.3  T
   4   -260.9238319 -0.115959E-04  0.131E-03    0.82       6.2  T
   5   -260.9238323 -0.409991E-06  0.486E-04    0.82      16.7  T
   6   -260.9238324 -0.226099E-07  0.288E-04    0.82      28.2  T
     SCC iter.                  ...        0 min,  0.283 sec
     gradient                   ...        0 min,  0.236 sec
 * total energy  :  -256.2439980 Eh     change       -0.8858115E-04 Eh
   gradient norm :     0.0029209 Eh/α   predicted     0.0000000E+00 (-100.00%)
   displ. norm   :     0.0457386 α      lambda       -0.4215950E-04
   maximum displ.:     0.0208878 α      in ANC's #7, #26, #29, ...

........................................................................
.............................. CYCLE   44 ..............................
........................................................................
   1   -260.9251677 -0.260925E+03  0.891E-03    0.82       0.0  T
   2   -260.9251677 -0.348871E-07  0.528E-03    0.82       1.5  T
   3   -260.9251662  0.151595E-05  0.229E-03    0.82       3.5  T
   4   -260.9251677 -0.153474E-05  0.532E-04    0.82      15.3  T
   5   -260.9251678 -0.723550E-07  0.156E-04    0.82      52.1  T
   6   -260.9251678 -0.266806E-08  0.812E-05    0.82      99.8  T
     SCC iter.                  ...        0 min,  0.284 sec
     gradient                   ...        0 min,  0.237 sec
 * total energy  :  -256.2440342 Eh     change       -0.3613447E-04 Eh
   gradient norm :     0.0017310 Eh/α   predicted    -0.2144382E-04 ( -40.66%)
   displ. norm   :     0.2412332 α      lambda       -0.9960267E-04
   maximum displ.:     0.1116574 α      in ANC's #7, #26, #19, ...

........................................................................
.............................. CYCLE   45 ..............................
........................................................................
   1   -260.9285657 -0.260929E+03  0.363E-02    0.83       0.0  T
   2   -260.9285663 -0.601507E-06  0.214E-02    0.83       1.0  T
   3   -260.9285472  0.190700E-04  0.838E-03    0.83       1.0  T
   4   -260.9285667 -0.194585E-04  0.185E-03    0.83       4.4  T
   5   -260.9285675 -0.843896E-06  0.575E-04    0.83      14.1  T
   6   -260.9285675 -0.336628E-07  0.309E-04    0.83      26.3  T
     SCC iter.                  ...        0 min,  0.284 sec
     gradient                   ...        0 min,  0.237 sec
 * total energy  :  -256.2441081 Eh     change       -0.7389775E-04 Eh
   gradient norm :     0.0034694 Eh/α   predicted    -0.5109031E-04 ( -30.86%)
   displ. norm   :     0.0604947 α      lambda       -0.2927709E-04
   maximum displ.:     0.0337382 α      in ANC's #7, #26, #4, ...

........................................................................
.............................. CYCLE   46 ..............................
........................................................................
   1   -260.9276586 -0.260928E+03  0.717E-03    0.83       0.0  T
   2   -260.9276586 -0.283839E-07  0.425E-03    0.83       1.9  T
   3   -260.9276581  0.492214E-06  0.146E-03    0.83       5.6  T
   4   -260.9276586 -0.512231E-06  0.304E-04    0.83      26.7  T
   5   -260.9276587 -0.186594E-07  0.107E-04    0.83      76.1  T
     SCC iter.                  ...        0 min,  0.237 sec
     gradient                   ...        0 min,  0.237 sec
 * total energy  :  -256.2441342 Eh     change       -0.2612780E-04 Eh
   gradient norm :     0.0026110 Eh/α   predicted    -0.1469289E-04 ( -43.77%)
   displ. norm   :     0.1888247 α      lambda       -0.8005571E-04
   maximum displ.:     0.1059852 α      in ANC's #7, #4, #5, ...

........................................................................
.............................. CYCLE   47 ..............................
........................................................................
   1   -260.9247890 -0.260925E+03  0.211E-02    0.82       0.0  T
   2   -260.9247893 -0.298258E-06  0.125E-02    0.82       1.0  T
   3   -260.9247842  0.511719E-05  0.460E-03    0.83       1.8  T
   4   -260.9247895 -0.529060E-05  0.104E-03    0.82       7.8  T
   5   -260.9247897 -0.222105E-06  0.350E-04    0.82      23.2  T
   6   -260.9247898 -0.119439E-07  0.209E-04    0.82      38.8  T
     SCC iter.                  ...        0 min,  0.283 sec
     gradient                   ...        0 min,  0.237 sec
 * total energy  :  -256.2441899 Eh     change       -0.5573889E-04 Eh
   gradient norm :     0.0014443 Eh/α   predicted    -0.4145532E-04 ( -25.63%)
   displ. norm   :     0.2493892 α      lambda       -0.3922114E-04
   maximum displ.:     0.1475458 α      in ANC's #7, #4, #5, ...

........................................................................
.............................. CYCLE   48 ..............................
........................................................................
   1   -260.9230085 -0.260923E+03  0.243E-02    0.82       0.0  T
   2   -260.9230088 -0.332435E-06  0.143E-02    0.82       1.0  T
   3   -260.9230054  0.342134E-05  0.403E-03    0.82       2.0  T
   4   -260.9230089 -0.355955E-05  0.936E-04    0.82       8.7  T
   5   -260.9230091 -0.163490E-06  0.357E-04    0.82      22.7  T
   6   -260.9230091 -0.102150E-07  0.214E-04    0.82      37.9  T
     SCC iter.                  ...        0 min,  0.282 sec
     gradient                   ...        0 min,  0.237 sec
 * total energy  :  -256.2442308 Eh     change       -0.4088726E-04 Eh
   gradient norm :     0.0026851 Eh/α   predicted    -0.2015334E-04 ( -50.71%)
   displ. norm   :     0.1212330 α      lambda       -0.3435536E-04
   maximum displ.:     0.0749872 α      in ANC's #7, #4, #5, ...

........................................................................
.............................. CYCLE   49 ..............................
........................................................................
   1   -260.9235583 -0.260924E+03  0.954E-03    0.82       0.0  T
   2   -260.9235583 -0.291468E-07  0.561E-03    0.82       1.4  T
   3   -260.9235573  0.957526E-06  0.185E-03    0.82       4.4  T
   4   -260.9235583 -0.964925E-06  0.425E-04    0.82      19.1  T
   5   -260.9235584 -0.520374E-07  0.143E-04    0.82      56.6  T
     SCC iter.                  ...        0 min,  0.238 sec
     gradient                   ...        0 min,  0.237 sec
 * total energy  :  -256.2442630 Eh     change       -0.3220004E-04 Eh
   gradient norm :     0.0023790 Eh/α   predicted    -0.1743472E-04 ( -45.85%)
   displ. norm   :     0.2436777 α      lambda       -0.8304494E-04
   maximum displ.:     0.1478051 α      in ANC's #7, #4, #5, ...

........................................................................
.............................. CYCLE   50 ..............................
........................................................................
   1   -260.9255651 -0.260926E+03  0.181E-02    0.82       0.0  T
   2   -260.9255652 -0.126130E-06  0.107E-02    0.82       1.0  T
   3   -260.9255617  0.352995E-05  0.373E-03    0.82       2.2  T
   4   -260.9255653 -0.362964E-05  0.768E-04    0.82      10.6  T
   5   -260.9255654 -0.141156E-06  0.304E-04    0.82      26.7  T
   6   -260.9255654 -0.567559E-08  0.191E-04    0.82      42.5  T
     SCC iter.                  ...        0 min,  0.283 sec
     gradient                   ...        0 min,  0.236 sec
 * total energy  :  -256.2443348 Eh     change       -0.7178674E-04 Eh
   gradient norm :     0.0016112 Eh/α   predicted    -0.4399118E-04 ( -38.72%)
   displ. norm   :     0.5742484 α      lambda       -0.1034066E-03
   maximum displ.:     0.3460370 α      in ANC's #7, #4, #5, ...

........................................................................
.............................. CYCLE   51 ..............................
........................................................................
   1   -260.9274188 -0.260927E+03  0.404E-02    0.83       0.0  T
   2   -260.9274196 -0.719568E-06  0.237E-02    0.83       1.0  T
   3   -260.9274082  0.113350E-04  0.671E-03    0.83       1.2  T
   4   -260.9274199 -0.116704E-04  0.154E-03    0.83       5.3  T
   5   -260.9274205 -0.547419E-06  0.661E-04    0.83      12.3  T
   6   -260.9274205 -0.279653E-07  0.392E-04    0.83      20.7  T
     SCC iter.                  ...        0 min,  0.282 sec
     gradient                   ...        0 min,  0.236 sec
 * total energy  :  -256.2444520 Eh     change       -0.1171999E-03 Eh
   gradient norm :     0.0032559 Eh/α   predicted    -0.5928155E-04 ( -49.42%)
   displ. norm   :     0.3273273 α      lambda       -0.6959873E-04
   maximum displ.:     0.1969196 α      in ANC's #7, #4, #5, ...

........................................................................
.............................. CYCLE   52 ..............................
........................................................................
   1   -260.9273082 -0.260927E+03  0.211E-02    0.83       0.0  T
   2   -260.9273084 -0.213440E-06  0.123E-02    0.83       1.0  T
   3   -260.9273072  0.116862E-05  0.244E-03    0.83       3.3  T
   4   -260.9273085 -0.128035E-05  0.563E-04    0.83      14.4  T
   5   -260.9273085 -0.392316E-07  0.330E-04    0.83      24.6  T
   6   -260.9273086 -0.966571E-08  0.171E-04    0.83      47.5  T
     SCC iter.                  ...        0 min,  0.282 sec
     gradient                   ...        0 min,  0.236 sec
 * total energy  :  -256.2445171 Eh     change       -0.6509053E-04 Eh
   gradient norm :     0.0033461 Eh/α   predicted    -0.3853365E-04 ( -40.80%)
   displ. norm   :     0.4226320 α      lambda       -0.1022663E-03
   maximum displ.:     0.2531060 α      in ANC's #7, #4, #5, ...

........................................................................
.............................. CYCLE   53 ..............................
........................................................................
   1   -260.9263485 -0.260926E+03  0.261E-02    0.83       0.0  T
   2   -260.9263488 -0.312558E-06  0.153E-02    0.83       1.0  T
   3   -260.9263459  0.295394E-05  0.352E-03    0.83       2.3  T
   4   -260.9263490 -0.311106E-05  0.836E-04    0.83       9.7  T
   5   -260.9263491 -0.126864E-06  0.419E-04    0.83      19.4  T
   6   -260.9263491 -0.114441E-07  0.262E-04    0.83      30.9  T
     SCC iter.                  ...        0 min,  0.284 sec
     gradient                   ...        0 min,  0.237 sec
 * total energy  :  -256.2446120 Eh     change       -0.9488262E-04 Eh
   gradient norm :     0.0026439 Eh/α   predicted    -0.6026700E-04 ( -36.48%)
   displ. norm   :     0.5586407 α      lambda       -0.1350122E-03
   maximum displ.:     0.3344749 α      in ANC's #7, #4, #5, ...

........................................................................
.............................. CYCLE   54 ..............................
........................................................................
   1   -260.9244347 -0.260924E+03  0.337E-02    0.83       0.0  T
   2   -260.9244351 -0.439797E-06  0.198E-02    0.83       1.0  T
   3   -260.9244261  0.901679E-05  0.572E-03    0.83       1.4  T
   4   -260.9244354 -0.931037E-05  0.125E-03    0.83       6.5  T
   5   -260.9244358 -0.366352E-06  0.552E-04    0.83      14.7  T
   6   -260.9244358 -0.212423E-07  0.342E-04    0.83      23.7  T
     SCC iter.                  ...        0 min,  0.285 sec
     gradient                   ...        0 min,  0.236 sec
 * total energy  :  -256.2447330 Eh     change       -0.1210405E-03 Eh
   gradient norm :     0.0020825 Eh/α   predicted    -0.8857446E-04 ( -26.82%)
   displ. norm   :     0.6250200 α      lambda       -0.1361259E-03
   maximum displ.:     0.3745465 α      in ANC's #7, #4, #5, ...

........................................................................
.............................. CYCLE   55 ..............................
........................................................................
   1   -260.9222584 -0.260922E+03  0.375E-02    0.83       0.0  T
   2   -260.9222590 -0.533636E-06  0.220E-02    0.83       1.0  T
   3   -260.9222474  0.115343E-04  0.654E-03    0.83       1.2  T
   4   -260.9222594 -0.119620E-04  0.136E-03    0.83       6.0  T
   5   -260.9222598 -0.416218E-06  0.625E-04    0.83      13.0  T
   6   -260.9222598 -0.341287E-07  0.371E-04    0.83      21.9  T
     SCC iter.                  ...        0 min,  0.283 sec
     gradient                   ...        0 min,  0.235 sec
 * total energy  :  -256.2448534 Eh     change       -0.1203482E-03 Eh
   gradient norm :     0.0025614 Eh/α   predicted    -0.9465205E-04 ( -21.35%)
   displ. norm   :     0.6358630 α      lambda       -0.1271819E-03
   maximum displ.:     0.3815142 α      in ANC's #7, #4, #5, ...

........................................................................
.............................. CYCLE   56 ..............................
........................................................................
   1   -260.9207121 -0.260921E+03  0.380E-02    0.83       0.0  T
   2   -260.9207126 -0.567985E-06  0.222E-02    0.83       1.0  T
   3   -260.9207015  0.111704E-04  0.662E-03    0.83       1.2  T
   4   -260.9207132 -0.116843E-04  0.130E-03    0.83       6.2  T
   5   -260.9207135 -0.335552E-06  0.650E-04    0.83      12.5  T
   6   -260.9207135 -0.458550E-07  0.369E-04    0.83      22.0  T
     SCC iter.                  ...        0 min,  0.283 sec
     gradient                   ...        0 min,  0.235 sec
 * total energy  :  -256.2449673 Eh     change       -0.1139020E-03 Eh
   gradient norm :     0.0031365 Eh/α   predicted    -0.8930330E-04 ( -21.60%)
   displ. norm   :     0.6520930 α      lambda       -0.1314942E-03
   maximum displ.:     0.3917081 α      in ANC's #7, #4, #5, ...

........................................................................
.............................. CYCLE   57 ..............................
........................................................................
   1   -260.9201890 -0.260920E+03  0.393E-02    0.83       0.0  T
   2   -260.9201896 -0.617508E-06  0.230E-02    0.83       1.0  T
   3   -260.9201787  0.109285E-04  0.680E-03    0.83       1.2  T
   4   -260.9201902 -0.115805E-04  0.122E-03    0.83       6.7  T
   5   -260.9201905 -0.227213E-06  0.678E-04    0.83      12.0  T
   6   -260.9201905 -0.534650E-07  0.374E-04    0.83      21.7  T
     SCC iter.                  ...        0 min,  0.282 sec
     gradient                   ...        0 min,  0.235 sec
 * total energy  :  -256.2450867 Eh     change       -0.1194019E-03 Eh
   gradient norm :     0.0031905 Eh/α   predicted    -0.9370635E-04 ( -21.52%)
   displ. norm   :     0.6913407 α      lambda       -0.1496207E-03
   maximum displ.:     0.4152901 α      in ANC's #7, #4, #5, ...

........................................................................
.............................. CYCLE   58 ..............................
........................................................................
   1   -260.9207958 -0.260921E+03  0.425E-02    0.84       0.0  T
   2   -260.9207966 -0.713598E-06  0.249E-02    0.84       1.0  T
   3   -260.9207839  0.126844E-04  0.758E-03    0.84       1.1  T
   4   -260.9207975 -0.135969E-04  0.120E-03    0.84       6.7  T
   5   -260.9207976 -0.157307E-06  0.711E-04    0.84      11.4  T
   6   -260.9207977 -0.475914E-07  0.390E-04    0.84      20.8  T
     SCC iter.                  ...        0 min,  0.282 sec
     gradient                   ...        0 min,  0.236 sec
 * total energy  :  -256.2452220 Eh     change       -0.1353039E-03 Eh
   gradient norm :     0.0026226 Eh/α   predicted    -0.1105697E-03 ( -18.28%)
   displ. norm   :     0.7187188 α      lambda       -0.1639899E-03
   maximum displ.:     0.4304985 α      in ANC's #7, #4, #5, ...

........................................................................
.............................. CYCLE   59 ..............................
........................................................................
   1   -260.9222577 -0.260922E+03  0.457E-02    0.84       0.0  T
   2   -260.9222585 -0.779410E-06  0.268E-02    0.84       1.0  T
   3   -260.9222428  0.157415E-04  0.855E-03    0.84       1.0  T
   4   -260.9222597 -0.169180E-04  0.126E-03    0.84       6.4  T
   5   -260.9222598 -0.157624E-06  0.728E-04    0.84      11.1  T
   6   -260.9222599 -0.383696E-07  0.390E-04    0.84      20.8  T
     SCC iter.                  ...        0 min,  0.284 sec
     gradient                   ...        0 min,  0.236 sec
 * total energy  :  -256.2453674 Eh     change       -0.1454018E-03 Eh
   gradient norm :     0.0017919 Eh/α   predicted    -0.1243503E-03 ( -14.48%)
   displ. norm   :     1.0924334 α      lambda       -0.1580553E-03
   maximum displ.:     0.6503965 α      in ANC's #7, #4, #5, ...

........................................................................
.............................. CYCLE   60 ..............................
........................................................................
   1   -260.9230708 -0.260923E+03  0.712E-02    0.84       0.0  T
   2   -260.9230726 -0.177562E-05  0.417E-02    0.84       1.0  T
   3   -260.9230317  0.409164E-04  0.137E-02    0.84       1.0  T
   4   -260.9230755 -0.438033E-04  0.201E-03    0.84       4.0  T
   5   -260.9230759 -0.447131E-06  0.114E-03    0.84       7.1  T
   6   -260.9230760 -0.829801E-07  0.654E-04    0.84      12.4  T
   7   -260.9230761 -0.102682E-06  0.209E-04    0.84      38.8  T
     SCC iter.                  ...        0 min,  0.329 sec
     gradient                   ...        0 min,  0.237 sec
 * total energy  :  -256.2455592 Eh     change       -0.1918487E-03 Eh
   gradient norm :     0.0024229 Eh/α   predicted    -0.1209467E-03 ( -36.96%)
   displ. norm   :     0.6481209 α      lambda       -0.1123467E-03
   maximum displ.:     0.3864197 α      in ANC's #7, #4, #5, ...

[...]
 441:  1.96 442:  1.96 443:  1.95 444:  1.95 445:  1.95 446:  1.95 447:  1.95 448:  1.95
 449:  1.90 450:  1.90 451:  1.89 452:  1.89 453:  1.89 454:  1.89 455:  1.89 456:  1.89
 IR intensities (km·mol⁻¹)
   1:  1.22   2:  0.23   3:  3.89   4: 26.50   5:  2.44   6: 33.18   7:  8.93   8:  5.15
   9:  6.36  10:  0.17  11:  1.53  12:  2.19  13:  0.75  14:  0.37  15:  2.23  16:  3.47
  17:  7.69  18: 25.17  19: 17.78  20: 20.55  21:  9.09  22: 38.27  23: 16.59  24: 15.37
  25: 15.22  26:  3.46  27: 13.67  28:  2.34  29: 14.62  30: 86.50  31: 24.75  32:190.02
  33:171.66  34: 36.29  35: 92.27  36: 82.75  37: 13.71  38:  2.45  39:  1.54  40:  2.46
  41: 14.11  42:  1.75  43:  4.31  44:  2.25  45:  9.82  46:  1.11  47:  0.19  48:  0.08
  49:  0.30  50:  8.76  51:  3.31  52: 13.76  53:  0.98  54: 11.78  55:  7.82  56:  2.88
  57:  0.71  58:  4.79  59: 25.34  60:  7.20  61: 19.01  62: 13.44  63:  1.59  64:  3.89
  65: 50.13  66: 73.79  67: 28.51  68: 19.24  69:  0.45  70:  2.79  71: 60.16  72:  1.36
  73:  0.85  74:  5.99  75: 69.41  76:  4.30  77:  6.90  78:  1.50  79:  3.03  80:  1.04
  81: 41.83  82: 37.89  83:  1.47  84:  1.34  85: 47.40  86: 25.47  87: 48.07  88:  6.15
  89:  8.20  90:  5.10  91: 18.60  92:  3.63  93: 15.03  94:  1.57  95:  6.12  96: 18.85
  97: 19.86  98:  3.96  99:  0.63 100: 11.83 101:  1.71 102:  1.40 103:  0.94 104:  0.13
 105: 13.17 106:  1.75 107:  1.39 108:  0.73 109:  8.59 110:  1.73 111:  0.68 112:  0.86
 113:  2.14 114:  0.17 115:  0.42 116:  0.09 117:  0.27 118:  0.33 119: 49.00 120: 85.17
 121: 11.82 122: 51.00 123: 28.63 124: 15.84 125:  2.50 126:  4.11 127: 48.07 128: 60.80
 129:  4.07 130:  6.19 131:107.20 132:  1.46 133: 10.00 134:  2.99 135:  1.53 136:  3.85
 137:  4.56 138:  0.92 139:  5.62 140: 19.89 141:148.62 142:  3.70 143: 22.37 144: 11.50
 145:  0.02 146:  9.45 147: 14.36 148:  3.84 149:  0.57 150:  4.21 151: 13.20 152:  7.88
 153:  8.87 154:  0.96 155:  0.44 156:  8.87 157:  5.44 158:  2.29 159:  0.54 160:  3.51
 161: 12.68 162:  1.57 163:  1.20 164: 22.17 165: 15.51 166: 14.45 167: 10.76 168:491.53
 169:139.57 170:****** 171:209.42 172: 70.64 173: 32.67 174: 38.49 175:  3.16 176:  1.90
 177: 87.39 178:  2.23 179: 69.69 180:  2.93 181:  0.88 182:  1.46 183: 13.11 184:  8.95
 185:  3.18 186: 32.47 187: 40.29 188:  6.91 189:  7.15 190:  4.63 191: 38.25 192: 15.17
 193:  7.50 194: 19.31 195: 25.82 196: 60.82 197: 20.77 198:  4.85 199:  9.89 200:  4.40
 201:  5.91 202: 22.14 203:  5.57 204:  2.08 205: 42.31 206: 28.51 207: 76.40 208: 40.73
 209:  1.82 210:163.45 211: 14.27 212: 73.34 213: 85.12 214: 45.94 215:136.82 216:122.10
 217: 85.56 218:338.47 219:407.66 220:245.12 221:120.06 222: 41.37 223: 32.99 224: 73.67
 225:195.74 226: 14.00 227: 77.66 228: 25.69 229: 18.08 230: 89.88 231: 23.80 232:  2.06
 233:  1.97 234:  4.87 235: 13.87 236: 10.71 237:  7.46 238:  2.81 239: 31.13 240:  5.19
 241:  4.12 242:  3.77 243:  7.80 244:  3.99 245:  4.53 246:  1.41 247: 21.03 248: 77.75
 249:****** 250: 56.29 251:805.01 252: 41.12 253:322.09 254: 36.31 255:  3.96 256: 47.36
 257: 84.50 258:  3.49 259:  0.61 260:  9.44 261: 14.50 262: 36.03 263:  1.16 264:  1.88
 265:  2.71 266:  6.51 267:  1.10 268: 31.41 269: 64.44 270: 33.73 271:  4.51 272: 26.36
 273:  0.99 274: 15.12 275: 18.93 276: 62.29 277: 23.76 278:  3.37 279:  7.78 280: 12.20
 281: 15.75 282: 53.51 283: 49.91 284:  7.46 285: 42.48 286: 30.39 287: 16.80 288: 13.71
 289: 26.08 290:620.99 291: 49.10 292: 42.46 293: 62.84 294: 29.68 295: 87.91 296:  5.74
 297:  8.02 298: 19.34 299:  1.57 300:  0.10 301:  7.85 302:  3.68 303: 25.42 304:192.00
 305: 12.53 306:  3.34 307: 45.15 308: 19.06 309:308.73 310:  0.62 311: 23.16 312:  5.89
 313:544.84 314:  5.05 315: 35.91 316: 49.48 317: 19.56 318: 34.81 319:115.37 320: 29.10
 321:  3.83 322:  7.08 323: 13.03 324: 15.44 325:  0.83 326:  0.47 327:  8.31 328:  7.73
 329:221.44 330: 40.97 331:  4.60 332: 68.59 333: 20.45 334: 35.48 335:324.61 336:  5.25
 337:237.20 338:  6.73 339:  3.79 340:  0.01 341:  8.91 342: 19.54 343: 84.81 344: 48.33
 345: 12.95 346:  0.33 347: 12.55 348:229.99 349:  3.18 350:  0.56 351:  6.23 352:  1.75
 353:  0.97 354: 46.64 355:  3.00 356: 12.84 357: 20.89 358:  3.72 359:  4.32 360:  0.80
 361: 13.49 362:  2.60 363:  1.72 364:  0.66 365: 13.77 366:  0.66 367: 11.93 368:  4.71
 369: 23.19 370:  0.82 371:161.23 372: 10.65 373: 54.86 374:  2.03 375:  8.99 376: 13.99
 377:  3.84 378:  5.65 379:  3.95 380: 16.73 381: 36.53 382: 24.11 383:  8.34 384:  1.64
 385:  0.96 386: 26.26 387:132.04 388: 51.38 389:114.36 390:  1.90 391: 15.24 392:  8.86
 393: 31.65 394:  1.27 395: 28.79 396:592.62 397: 17.81 398: 69.54 399: 15.10 400:  0.10
 401:  2.27 402: 83.85 403: 37.66 404:  0.15 405:  5.31 406:  1.31 407:  0.34 408:  4.19
 409:  7.33 410:  5.94 411:136.30 412: 33.44 413: 23.93 414:  3.02 415: 23.78 416: 11.30
 417: 14.53 418: 26.62 419: 15.89 420: 45.81 421: 26.88 422: 36.88 423:  9.43 424: 22.43
 425:190.46 426:299.49 427: 21.86 428: 39.69 429: 12.96 430: 21.65 431: 28.37 432:  9.45
 433:  3.60 434: 26.98 435:108.19 436: 45.50 437: 78.46 438: 29.27 439: 22.80 440: 68.53
 441: 90.49 442:158.01 443: 49.42 444: 18.34 445: 21.48 446: 24.62 447: 45.12 448: 45.71
 449:  7.94 450: 28.42 451:  0.93 452:  0.45 453:****** 454: 10.53 455:849.76 456:  5.53
 Raman intensities (amu)
   1:  0.00   2:  0.00   3:  0.00   4:  0.00   5:  0.00   6:  0.00   7:  0.00   8:  0.00
   9:  0.00  10:  0.00  11:  0.00  12:  0.00  13:  0.00  14:  0.00  15:  0.00  16:  0.00
  17:  0.00  18:  0.00  19:  0.00  20:  0.00  21:  0.00  22:  0.00  23:  0.00  24:  0.00
  25:  0.00  26:  0.00  27:  0.00  28:  0.00  29:  0.00  30:  0.00  31:  0.00  32:  0.00
  33:  0.00  34:  0.00  35:  0.00  36:  0.00  37:  0.00  38:  0.00  39:  0.00  40:  0.00
  41:  0.00  42:  0.00  43:  0.00  44:  0.00  45:  0.00  46:  0.00  47:  0.00  48:  0.00
  49:  0.00  50:  0.00  51:  0.00  52:  0.00  53:  0.00  54:  0.00  55:  0.00  56:  0.00
  57:  0.00  58:  0.00  59:  0.00  60:  0.00  61:  0.00  62:  0.00  63:  0.00  64:  0.00
  65:  0.00  66:  0.00  67:  0.00  68:  0.00  69:  0.00  70:  0.00  71:  0.00  72:  0.00
  73:  0.00  74:  0.00  75:  0.00  76:  0.00  77:  0.00  78:  0.00  79:  0.00  80:  0.00
  81:  0.00  82:  0.00  83:  0.00  84:  0.00  85:  0.00  86:  0.00  87:  0.00  88:  0.00
  89:  0.00  90:  0.00  91:  0.00  92:  0.00  93:  0.00  94:  0.00  95:  0.00  96:  0.00
  97:  0.00  98:  0.00  99:  0.00 100:  0.00 101:  0.00 102:  0.00 103:  0.00 104:  0.00
 105:  0.00 106:  0.00 107:  0.00 108:  0.00 109:  0.00 110:  0.00 111:  0.00 112:  0.00
 113:  0.00 114:  0.00 115:  0.00 116:  0.00 117:  0.00 118:  0.00 119:  0.00 120:  0.00
 121:  0.00 122:  0.00 123:  0.00 124:  0.00 125:  0.00 126:  0.00 127:  0.00 128:  0.00
 129:  0.00 130:  0.00 131:  0.00 132:  0.00 133:  0.00 134:  0.00 135:  0.00 136:  0.00
 137:  0.00 138:  0.00 139:  0.00 140:  0.00 141:  0.00 142:  0.00 143:  0.00 144:  0.00
 145:  0.00 146:  0.00 147:  0.00 148:  0.00 149:  0.00 150:  0.00 151:  0.00 152:  0.00
 153:  0.00 154:  0.00 155:  0.00 156:  0.00 157:  0.00 158:  0.00 159:  0.00 160:  0.00
 161:  0.00 162:  0.00 163:  0.00 164:  0.00 165:  0.00 166:  0.00 167:  0.00 168:  0.00
 169:  0.00 170:  0.00 171:  0.00 172:  0.00 173:  0.00 174:  0.00 175:  0.00 176:  0.00
 177:  0.00 178:  0.00 179:  0.00 180:  0.00 181:  0.00 182:  0.00 183:  0.00 184:  0.00
 185:  0.00 186:  0.00 187:  0.00 188:  0.00 189:  0.00 190:  0.00 191:  0.00 192:  0.00
 193:  0.00 194:  0.00 195:  0.00 196:  0.00 197:  0.00 198:  0.00 199:  0.00 200:  0.00
 201:  0.00 202:  0.00 203:  0.00 204:  0.00 205:  0.00 206:  0.00 207:  0.00 208:  0.00
 209:  0.00 210:  0.00 211:  0.00 212:  0.00 213:  0.00 214:  0.00 215:  0.00 216:  0.00
 217:  0.00 218:  0.00 219:  0.00 220:  0.00 221:  0.00 222:  0.00 223:  0.00 224:  0.00
 225:  0.00 226:  0.00 227:  0.00 228:  0.00 229:  0.00 230:  0.00 231:  0.00 232:  0.00
 233:  0.00 234:  0.00 235:  0.00 236:  0.00 237:  0.00 238:  0.00 239:  0.00 240:  0.00
 241:  0.00 242:  0.00 243:  0.00 244:  0.00 245:  0.00 246:  0.00 247:  0.00 248:  0.00
 249:  0.00 250:  0.00 251:  0.00 252:  0.00 253:  0.00 254:  0.00 255:  0.00 256:  0.00
 257:  0.00 258:  0.00 259:  0.00 260:  0.00 261:  0.00 262:  0.00 263:  0.00 264:  0.00
 265:  0.00 266:  0.00 267:  0.00 268:  0.00 269:  0.00 270:  0.00 271:  0.00 272:  0.00
 273:  0.00 274:  0.00 275:  0.00 276:  0.00 277:  0.00 278:  0.00 279:  0.00 280:  0.00
 281:  0.00 282:  0.00 283:  0.00 284:  0.00 285:  0.00 286:  0.00 287:  0.00 288:  0.00
 289:  0.00 290:  0.00 291:  0.00 292:  0.00 293:  0.00 294:  0.00 295:  0.00 296:  0.00
 297:  0.00 298:  0.00 299:  0.00 300:  0.00 301:  0.00 302:  0.00 303:  0.00 304:  0.00
 305:  0.00 306:  0.00 307:  0.00 308:  0.00 309:  0.00 310:  0.00 311:  0.00 312:  0.00
 313:  0.00 314:  0.00 315:  0.00 316:  0.00 317:  0.00 318:  0.00 319:  0.00 320:  0.00
Molecule has no symmetry elements
It seems to be the C1 point group
 321:  0.00 322:  0.00 323:  0.00 324:  0.00 325:  0.00 326:  0.00 327:  0.00 328:  0.00
 329:  0.00 330:  0.00 331:  0.00 332:  0.00 333:  0.00 334:  0.00 335:  0.00 336:  0.00
 337:  0.00 338:  0.00 339:  0.00 340:  0.00 341:  0.00 342:  0.00 343:  0.00 344:  0.00
 345:  0.00 346:  0.00 347:  0.00 348:  0.00 349:  0.00 350:  0.00 351:  0.00 352:  0.00
 353:  0.00 354:  0.00 355:  0.00 356:  0.00 357:  0.00 358:  0.00 359:  0.00 360:  0.00
 361:  0.00 362:  0.00 363:  0.00 364:  0.00 365:  0.00 366:  0.00 367:  0.00 368:  0.00
 369:  0.00 370:  0.00 371:  0.00 372:  0.00 373:  0.00 374:  0.00 375:  0.00 376:  0.00
 377:  0.00 378:  0.00 379:  0.00 380:  0.00 381:  0.00 382:  0.00 383:  0.00 384:  0.00
 385:  0.00 386:  0.00 387:  0.00 388:  0.00 389:  0.00 390:  0.00 391:  0.00 392:  0.00
 393:  0.00 394:  0.00 395:  0.00 396:  0.00 397:  0.00 398:  0.00 399:  0.00 400:  0.00
 401:  0.00 402:  0.00 403:  0.00 404:  0.00 405:  0.00 406:  0.00 407:  0.00 408:  0.00
 409:  0.00 410:  0.00 411:  0.00 412:  0.00 413:  0.00 414:  0.00 415:  0.00 416:  0.00
 417:  0.00 418:  0.00 419:  0.00 420:  0.00 421:  0.00 422:  0.00 423:  0.00 424:  0.00
 425:  0.00 426:  0.00 427:  0.00 428:  0.00 429:  0.00 430:  0.00 431:  0.00 432:  0.00
 433:  0.00 434:  0.00 435:  0.00 436:  0.00 437:  0.00 438:  0.00 439:  0.00 440:  0.00
 441:  0.00 442:  0.00 443:  0.00 444:  0.00 445:  0.00 446:  0.00 447:  0.00 448:  0.00
 449:  0.00 450:  0.00 451:  0.00 452:  0.00 453:  0.00 454:  0.00 455:  0.00 456:  0.00
 output can be read by thermo (or use thermo option).
 writing <g98.out> molden fake output.
 recommended (thermochemical) frequency scaling factor: 1.0
           -------------------------------------------------
          |             Thermodynamic Functions             |
           -------------------------------------------------

c1  symmetry found (for desy threshold:  0.10E+00) used in thermo

          ...................................................
          :                      SETUP                      :
          :.................................................:
          :  # frequencies                         449      :
          :  # imaginary freq.                       0      :
          :  linear?                             false      :
          :  only rotor calc.                    false      :
          :  symmetry                               c1      :
          :  rotational number                       1      :
          :  scaling factor                  1.0000000      :
          :  rotor cutoff                   50.0000000 cm⁻¹ :
          :  imag. cutoff                  -20.0000000 cm⁻¹ :
          :.................................................:

    mode    ω/cm⁻¹     T·S(HO)/kcal·mol⁻¹    T·S(FR)/kcal·mol⁻¹   T·S(vib)
   ------------------------------------------------------------------------
       1      2.89    -3.12366 (  0.00%)    -1.90093 (100.00%)    -1.90095
       2      6.68    -2.62714 (  0.03%)    -1.65267 ( 99.97%)    -1.65298
       3      7.19    -2.58409 (  0.04%)    -1.63114 ( 99.96%)    -1.63155
       4      9.39    -2.42572 (  0.12%)    -1.55195 ( 99.88%)    -1.55304
       5     11.71    -2.29509 (  0.30%)    -1.48662 ( 99.70%)    -1.48904
       6     12.79    -2.24274 (  0.43%)    -1.46044 ( 99.57%)    -1.46377
       7     14.34    -2.17497 (  0.67%)    -1.42654 ( 99.33%)    -1.43157
       8     16.05    -2.10824 (  1.05%)    -1.39316 ( 98.95%)    -1.40068
       9     23.10    -1.89258 (  4.36%)    -1.28525 ( 95.64%)    -1.31173
      10     25.21    -1.84101 (  6.07%)    -1.25944 ( 93.93%)    -1.29473
      11     31.75    -1.70452 ( 13.98%)    -1.19109 ( 86.02%)    -1.26289
      12     38.83    -1.58546 ( 26.68%)    -1.13141 ( 73.32%)    -1.25256
      13     41.47    -1.54675 ( 32.11%)    -1.11200 ( 67.89%)    -1.25160
      14     42.79    -1.52817 ( 34.91%)    -1.10268 ( 65.09%)    -1.25123
      15     45.01    -1.49828 ( 39.65%)    -1.08767 ( 60.35%)    -1.25046
      16     45.38    -1.49351 ( 40.42%)    -1.08528 ( 59.58%)    -1.25029
      17     48.01    -1.46028 ( 45.94%)    -1.06860 ( 54.06%)    -1.24855
      18     51.64    -1.41722 ( 53.23%)    -1.04696 ( 46.77%)    -1.24406
      19     54.78    -1.38247 ( 59.03%)    -1.02949 ( 40.97%)    -1.23787
      20     58.65    -1.34229 ( 65.44%)    -1.00928 ( 34.56%)    -1.22719
      21     62.26    -1.30717 ( 70.62%)    -0.99159 ( 29.38%)    -1.21446
      22     67.99    -1.25545 ( 77.37%)    -0.96552 ( 22.63%)    -1.18983
      23     71.91    -1.22250 ( 81.06%)    -0.94888 ( 18.94%)    -1.17067
      24     72.68    -1.21626 ( 81.70%)    -0.94573 ( 18.30%)    -1.16676
      25     79.40    -1.16444 ( 86.41%)    -0.91953 ( 13.59%)    -1.13116
      26     84.69    -1.12674 ( 89.17%)    -0.90043 ( 10.83%)    -1.10222
      27     94.62    -1.06208 ( 92.77%)    -0.86760 (  7.23%)    -1.04801
      28     97.14    -1.04676 ( 93.44%)    -0.85980 (  6.56%)    -1.03450
      29    101.96    -1.01865 ( 94.53%)    -0.84547 (  5.47%)    -1.00918
      30    108.36    -0.98334 ( 95.66%)    -0.82744 (  4.34%)    -0.97658
      31    109.11    -0.97934 ( 95.78%)    -0.82539 (  4.22%)    -0.97284
      32    114.55    -0.95121 ( 96.50%)    -0.81098 (  3.50%)    -0.94630
      33    116.22    -0.94281 ( 96.69%)    -0.80667 (  3.31%)    -0.93830
      34    117.37    -0.93713 ( 96.81%)    -0.80375 (  3.19%)    -0.93288
      35    118.79    -0.93022 ( 96.96%)    -0.80020 (  3.04%)    -0.92626
      36    120.62    -0.92143 ( 97.13%)    -0.79568 (  2.87%)    -0.91782
      37    121.16    -0.91882 ( 97.18%)    -0.79435 (  2.82%)    -0.91532
      38    126.01    -0.89627 ( 97.58%)    -0.78273 (  2.42%)    -0.89352
      39    142.43    -0.82616 ( 98.50%)    -0.74643 (  1.50%)    -0.82497
      40    142.47    -0.82599 ( 98.51%)    -0.74635 (  1.49%)    -0.82480
      41    143.80    -0.82069 ( 98.56%)    -0.74359 (  1.44%)    -0.81958
      42    144.10    -0.81953 ( 98.57%)    -0.74299 (  1.43%)    -0.81844
      43    162.64    -0.75101 ( 99.11%)    -0.70713 (  0.89%)    -0.75062
      44    167.75    -0.73360 ( 99.22%)    -0.69796 (  0.78%)    -0.73332
      45    174.61    -0.71117 ( 99.33%)    -0.68609 (  0.67%)    -0.71101
      46    181.78    -0.68873 ( 99.43%)    -0.67416 (  0.57%)    -0.68865
      47    185.29    -0.67812 ( 99.47%)    -0.66850 (  0.53%)    -0.67807
      48    186.34    -0.67499 ( 99.48%)    -0.66683 (  0.52%)    -0.67494
      49    187.11    -0.67271 ( 99.49%)    -0.66561 (  0.51%)    -0.67268
      50    188.37    -0.66900 ( 99.51%)    -0.66363 (  0.49%)    -0.66898
      51    194.01    -0.65271 ( 99.56%)    -0.65488 (  0.44%)    -0.65272
      52    201.71    -0.63132 ( 99.62%)    -0.64335 (  0.38%)    -0.63136
      53    202.52    -0.62912 ( 99.63%)    -0.64216 (  0.37%)    -0.62916
      54    203.54    -0.62636 ( 99.64%)    -0.64067 (  0.36%)    -0.62641
      55    204.06    -0.62498 ( 99.64%)    -0.63992 (  0.36%)    -0.62504
      56    209.91    -0.60955 ( 99.68%)    -0.63154 (  0.32%)    -0.60962
      57    213.53    -0.60027 ( 99.70%)    -0.62648 (  0.30%)    -0.60035
      58    230.31    -0.55949 ( 99.78%)    -0.60407 (  0.22%)    -0.55959
      59    250.87    -0.51415 ( 99.84%)    -0.57874 (  0.16%)    -0.51425
      60    261.06    -0.49333 ( 99.87%)    -0.56694 (  0.13%)    -0.49343
      61    264.44    -0.48667 ( 99.87%)    -0.56314 (  0.13%)    -0.48677
      62    265.10    -0.48537 ( 99.87%)    -0.56240 (  0.13%)    -0.48547
      63    266.02    -0.48359 ( 99.88%)    -0.56137 (  0.12%)    -0.48368
      64    266.55    -0.48255 ( 99.88%)    -0.56078 (  0.12%)    -0.48265
      65    267.17    -0.48135 ( 99.88%)    -0.56009 (  0.12%)    -0.48145
      66    268.46    -0.47887 ( 99.88%)    -0.55867 (  0.12%)    -0.47896
      67    271.00    -0.47400 ( 99.88%)    -0.55587 (  0.12%)    -0.47409
      68    274.48    -0.46745 ( 99.89%)    -0.55209 (  0.11%)    -0.46754
      69    282.54    -0.45267 ( 99.90%)    -0.54352 (  0.10%)    -0.45276
      70    287.68    -0.44352 ( 99.91%)    -0.53818 (  0.09%)    -0.44360
      71    295.87    -0.42938 ( 99.92%)    -0.52986 (  0.08%)    -0.42946
      72    299.88    -0.42264 ( 99.92%)    -0.52587 (  0.08%)    -0.42272
   ------------------------------------------------------------------------

   temp. (K)  partition function   enthalpy   heat capacity  entropy
                                   cal/mol     cal/K/mol   cal/K/mol   J/K/mol
 298.15  VIB  0.212E+40            48613.534    320.863    305.896
         ROT  0.139E+10              888.752      2.981     44.815
         INT  0.294E+49            49502.286    323.844    350.711
         TR   0.457E+29             1481.254      4.968     47.359
         TOT                       50983.5403   328.8122   398.0698  1665.5239

       T/K    H(0)-H(T)+PV         H(T)/Eh          T*S/Eh         G(T)/Eh
   ------------------------------------------------------------------------
    298.15    0.812474E-01    0.119106E+01    0.189136E+00    0.100193E+01
   ------------------------------------------------------------------------

         :::::::::::::::::::::::::::::::::::::::::::::::::::::
         ::                  THERMODYNAMIC                  ::
         :::::::::::::::::::::::::::::::::::::::::::::::::::::
         :: total free energy        -255.245595904884 Eh   ::
         ::.................................................::
         :: total energy             -256.247522310473 Eh   ::
         :: zero point energy           1.109814751583 Eh   ::
         :: G(RRHO) w/o ZPVE           -0.107888345994 Eh   ::
         :: G(RRHO) contrib.            1.001926405589 Eh   ::
         :::::::::::::::::::::::::::::::::::::::::::::::::::::

optimized geometry written to: xtbopt.xyz


           -------------------------------------------------
          | TOTAL ENERGY             -256.247522310473 Eh   |
          | TOTAL ENTHALPY           -255.056460115766 Eh   |
          | TOTAL FREE ENERGY        -255.245595904884 Eh   |
          | GRADIENT NORM               0.000446730135 Eh/α |
          | HOMO-LUMO GAP               0.850302282671 eV   |
           -------------------------------------------------

------------------------------------------------------------------------
 * finished run on 2021/11/18 at 17:42:25.265     
------------------------------------------------------------------------
 total:
 * wall-time:     0 d,  0 h,  9 min,  3.292 sec
 *  cpu-time:     0 d,  0 h,  9 min,  3.280 sec
 * ratio c/w:     1.000 speedup
 SCF:
 * wall-time:     0 d,  0 h,  0 min,  1.070 sec
 *  cpu-time:     0 d,  0 h,  0 min,  1.070 sec
 * ratio c/w:     1.000 speedup
 ANC optimizer:
 * wall-time:     0 d,  0 h,  1 min, 17.103 sec
 *  cpu-time:     0 d,  0 h,  1 min, 17.086 sec
 * ratio c/w:     1.000 speedup
 analytical hessian:
 * wall-time:     0 d,  0 h,  7 min, 44.877 sec
 *  cpu-time:     0 d,  0 h,  7 min, 44.883 sec
 * ratio c/w:     1.000 speedup

