152
 energy: -255.708224918978 gnorm: 0.478355639980 xtb: 6.4.1 (bd6e46d)
C       -12.71094300000000    3.21958000000000    2.25974600000000
C       -12.06923600000000    2.09054800000000    1.97465300000000
C       -12.92568400000000    1.37847600000000    1.04951800000000
C       -12.78757400000000    0.13009600000000    0.39925900000000
C       -13.84861800000000   -0.57068500000000   -0.20979300000000
C       -13.59461900000000   -1.15604200000000   -1.46769100000000
C       -14.77908900000000   -1.70719500000000   -1.87097500000000
C       -15.70374400000000   -1.43645700000000   -0.84524300000000
N       -15.12633600000000   -0.75257900000000    0.15523900000000
C       -17.04091400000000   -1.85661100000000   -1.03607300000000
C       -18.18076300000000   -1.09842900000000   -0.80535400000000
C       -19.58837200000000   -1.41334100000000   -0.75474300000000
C       -20.21591800000000   -0.26183000000000   -0.48065700000000
C       -19.25694500000000    0.80619800000000   -0.35040100000000
N       -18.05238600000000    0.23767300000000   -0.55636300000000
C       -19.28004500000000    2.17870300000000   -0.06833500000000
C       -18.16642700000000    2.97730000000000    0.21900800000000
C       -18.07655200000000    4.24010000000000   -0.40636800000000
C       -16.89715800000000    4.78892200000000    0.01475900000000
C       -16.31182500000000    3.84061800000000    0.88109400000000
N       -17.09231200000000    2.75609300000000    0.99542100000000
C       -15.05771900000000    4.14363300000000    1.43444100000000
C       -13.97199000000000    3.25493500000000    1.53554900000000
N       -14.02014400000000    2.11436600000000    0.83449900000000
H       -12.40583100000000    4.02737400000000    2.91701100000000
H       -11.10747700000000    1.78039200000000    2.35917900000000
H       -12.65091900000000   -1.19107900000000   -2.04204500000000
H       -14.92813800000000   -2.25463900000000   -2.82024900000000
H       -15.60157600000000   -0.42926800000000    1.11070700000000
H       -17.23782700000000   -2.87161300000000   -1.42494200000000
H       -20.06756000000000   -2.37176100000000   -0.89811800000000
H       -21.29946400000000   -0.15706200000000   -0.37382300000000
H       -20.29305600000000    2.61910800000000   -0.10831700000000
H       -18.79228500000000    4.72315500000000   -1.09540500000000
H       -16.51750500000000    5.78570900000000   -0.28068000000000
H       -16.90417300000000    1.86037400000000    1.63357300000000
H       -14.83783700000000    5.15202800000000    1.81930700000000
C        14.94531700000000   -2.89618800000000   -1.26697400000000
C        13.73218600000000   -2.50932200000000   -0.89900800000000
C        13.76595600000000   -1.10103000000000   -0.62967900000000
C        12.90042100000000   -0.10834100000000   -0.21934000000000
C        13.23098800000000    1.21790900000000    0.15090400000000
C        12.44025900000000    2.26939600000000   -0.36967500000000
C        12.96886900000000    3.42619200000000    0.12432600000000
C        14.06850800000000    3.03881900000000    0.93386000000000
N        14.20335800000000    1.70280000000000    0.93373100000000
C        14.80885500000000    4.04890300000000    1.56617800000000
C        16.18543300000000    4.19458500000000    1.61931700000000
C        17.14364700000000    5.07206800000000    2.26019000000000
C        18.36059600000000    4.69903300000000    1.90096900000000
C        18.22594300000000    3.56365600000000    1.01403800000000
N        16.90530500000000    3.32138000000000    0.89232300000000
C        19.04284500000000    2.71071400000000    0.29779700000000
C        18.77054300000000    1.41249800000000   -0.16626800000000
C        19.79031500000000    0.43320300000000   -0.06822200000000
C        19.26185600000000   -0.71705900000000   -0.56863000000000
C        17.93534700000000   -0.40711600000000   -0.95714700000000
N        17.66553200000000    0.88194100000000   -0.70567500000000
C        17.14411900000000   -1.43062900000000   -1.50824400000000
C        15.82299600000000   -1.73477200000000   -1.24994100000000
N        15.03467000000000   -0.70829700000000   -0.85817900000000
H        15.30030900000000   -3.89283000000000   -1.54910500000000
H        12.86119500000000   -3.11894700000000   -0.80419200000000
H        11.55992000000000    2.20339500000000   -1.03611600000000
H        12.58997600000000    4.44295200000000   -0.07608400000000
H        14.96775600000000    1.10937400000000    1.49687200000000
H        14.26951700000000    4.88104500000000    2.08575400000000
H        16.86920500000000    5.88531800000000    2.91863900000000
H        19.31228400000000    5.12674100000000    2.18809800000000
H        20.04456100000000    3.16331100000000    0.10148300000000
H        20.81772200000000    0.55201600000000    0.32812900000000
H        19.78900900000000   -1.68740800000000   -0.64995100000000
H        16.70652500000000    1.41601600000000   -0.92458600000000
H        17.59940800000000   -2.12993700000000   -2.25647800000000
C       -11.41152600000000   -0.33972300000000    0.35023500000000
C       -10.23201900000000   -0.66370100000000    0.29678300000000
C        -0.62878100000000   -1.57243400000000   -0.18209700000000
C         0.61218000000000   -1.56409700000000   -0.07104500000000
C        10.29526100000000   -0.76020300000000   -0.19191800000000
C        11.47653200000000   -0.49779000000000   -0.20947100000000
C        -8.43033800000000   -4.55843900000000    0.44294500000000
C        -9.27571300000000   -3.54089300000000    0.38279700000000
C        -8.53225700000000   -2.31396200000000    0.31247100000000
C        -8.83120900000000   -0.93436200000000    0.22001100000000
C        -7.89070600000000    0.11814800000000    0.08340400000000
C        -8.05400900000000    1.23901600000000    0.91670000000000
C        -7.03766900000000    2.06983500000000    0.60105500000000
C        -6.25894800000000    1.46507100000000   -0.41401600000000
N        -6.81150200000000    0.27912700000000   -0.70347400000000
C        -5.12081200000000    2.13960400000000   -0.88286100000000
C        -3.85862400000000    1.54353000000000   -1.08770000000000
C        -2.62439000000000    1.88677000000000   -1.76289300000000
C        -1.78858000000000    0.86742400000000   -1.59163800000000
C        -2.42401500000000   -0.17416500000000   -0.80838000000000
N        -3.62689700000000    0.32718100000000   -0.57105600000000
C        -2.05084700000000   -1.44263500000000   -0.31034600000000
C        -2.89302300000000   -2.48314800000000    0.11147800000000
C        -2.56330900000000   -3.34212500000000    1.19050100000000
C        -3.59893300000000   -4.17552500000000    1.39426500000000
C        -4.57667200000000   -3.84613700000000    0.45251300000000
N        -4.12627500000000   -2.83454300000000   -0.30429400000000
C        -5.80085000000000   -4.53484300000000    0.45079600000000
C        -7.10657500000000   -3.98360300000000    0.41203000000000
N        -7.24813700000000   -2.68552300000000    0.33617000000000
H        -8.62822000000000   -5.61699400000000    0.50803800000000
H       -10.36927000000000   -3.57283900000000    0.38426700000000
H        -8.84045100000000    1.42802100000000    1.67065600000000
H        -6.90159700000000    3.04883600000000    1.09330100000000
H        -6.45095800000000   -0.43543800000000   -1.48149700000000
H        -5.12409200000000    3.19240900000000   -1.10118400000000
H        -2.41274100000000    2.79450900000000   -2.30496400000000
H        -0.75809200000000    0.80958200000000   -1.98085900000000
H        -1.59996300000000   -3.31527700000000    1.75829800000000
H        -3.64892700000000   -4.97403700000000    2.16626000000000
H        -4.69600400000000   -2.38145100000000   -1.17612400000000
H        -5.78876500000000   -5.65906700000000    0.51350400000000
C         2.55394900000000    2.04955700000000    1.01831900000000
C         1.69943700000000    1.04319400000000    0.92670500000000
C         2.41382500000000   -0.09532700000000    0.36312800000000
C         2.03522000000000   -1.42055800000000    0.05216800000000
C         2.88312400000000   -2.50788600000000   -0.18289300000000
C         2.57371400000000   -3.53022100000000   -1.12195100000000
C         3.61833500000000   -4.38916800000000   -1.16084100000000
C         4.57062300000000   -3.91508300000000   -0.25857000000000
N         4.09642700000000   -2.79301700000000    0.30920400000000
C         5.79229000000000   -4.58071400000000   -0.09829100000000
C         7.09151700000000   -4.05015000000000   -0.05336600000000
C         8.41798500000000   -4.60665000000000    0.11634900000000
C         9.27372000000000   -3.59845400000000    0.09670900000000
C         8.55635300000000   -2.35891700000000   -0.08269100000000
N         7.27585200000000   -2.73869000000000   -0.16186200000000
C         8.87671300000000   -0.99050800000000   -0.16207100000000
C         7.96790300000000    0.09148600000000   -0.23066600000000
C         8.15860900000000    1.14996500000000   -1.15014300000000
C         7.13550400000000    2.01785800000000   -0.99778200000000
C         6.28680800000000    1.52302600000000    0.01441900000000
N         6.84450300000000    0.37743500000000    0.42776900000000
C         5.09903100000000    2.18900000000000    0.37692900000000
C         3.84689100000000    1.61984800000000    0.52480300000000
N         3.63321200000000    0.33879000000000    0.16961000000000
H         2.27403100000000    3.02994800000000    1.40962700000000
H         0.65956500000000    1.09488500000000    1.23313000000000
H         1.63084900000000   -3.59234900000000   -1.71179400000000
H         3.70204300000000   -5.29261600000000   -1.77689400000000
H         4.64620100000000   -2.20284400000000    1.11450400000000
H         5.80820000000000   -5.70419500000000   -0.02085700000000
H         8.64358900000000   -5.66071700000000    0.23888700000000
H        10.36561900000000   -3.63456500000000    0.19962400000000
H         8.98092100000000    1.26959000000000   -1.87614500000000
H         7.02137700000000    2.95731300000000   -1.58226500000000
H         6.41587300000000   -0.27004100000000    1.27270100000000
H         5.14562000000000    3.26648300000000    0.53516100000000
152
 energy: -255.877544822048 gnorm: 0.254206469465 xtb: 6.4.1 (bd6e46d)
C       -12.71135700184535    3.23859242944553    2.26292933794037
C       -12.06579680040095    2.09691464726274    1.97166887471683
C       -12.93309839855199    1.37777863570278    1.05500534572366
C       -12.76271413254917    0.13225426203149    0.41837306095317
C       -13.82175617081724   -0.56724192107942   -0.21116254574238
C       -13.58730659154570   -1.16909100988642   -1.46604268417624
C       -14.77468648101676   -1.72369297388666   -1.86824152347586
C       -15.71884174972301   -1.44672024403623   -0.85734652059605
N       -15.12368519204013   -0.74180340517535    0.14129748443145
C       -17.05896920983006   -1.86292372276525   -1.02526501447967
C       -18.17794084021112   -1.08674985579887   -0.78888903982734
C       -19.59287165941429   -1.41026682668191   -0.75855734111115
C       -20.23201635288281   -0.25787916710181   -0.48293557824275
C       -19.24060586539126    0.79168726102346   -0.33882106134131
N       -18.02727776998629    0.23748520161671   -0.53383495643509
C       -19.29671691249610    2.15680565203820   -0.06259144742977
C       -18.18562648336486    2.97365053894358    0.20909081615044
C       -18.08571006349100    4.24966013527225   -0.39596162496967
C       -16.90431861973532    4.79965017767285    0.02564410896243
C       -16.29276459520950    3.85409410711183    0.88321942403298
N       -17.08548564733252    2.75446269428570    0.97805875445618
C       -15.03735855048695    4.13677582678480    1.45268948848883
C       -13.97732149005636    3.23570308053348    1.54044657792230
N       -14.04573035047984    2.08742801858857    0.83883721343425
H       -12.40428973543053    4.03251563573175    2.92137771448064
H       -11.11180798049209    1.77753855629368    2.35593186047373
H       -12.65894611776989   -1.18520218919010   -2.02929037292318
H       -14.93529776586642   -2.24833934052376   -2.80602722639787
H       -15.57850138006575   -0.43604154333607    1.05504138335830
H       -17.23585569010484   -2.86208344588673   -1.43142156581284
H       -20.06024596253121   -2.37091963499933   -0.89933646153191
H       -21.30193420700098   -0.15081426682569   -0.37237086444441
H       -20.28570971276081    2.61917443125243   -0.11941380432863
H       -18.78699454329337    4.70995751509289   -1.08640981905958
H       -16.51573724057570    5.77019497705185   -0.27311623751086
H       -16.90825541019388    1.90139484848973    1.59045550746468
H       -14.83670780670653    5.14894561484136    1.80869313294804
C        14.95416482773842   -2.89864175489836   -1.28342553046060
C        13.72703850342406   -2.51484837897013   -0.90082801934226
C        13.78480144206146   -1.09961204694024   -0.61767795800262
C        12.87586674665734   -0.13225520560679   -0.20895736131443
C        13.21071733611574    1.20568029531969    0.14136636021577
C        12.42900321127030    2.26841311559774   -0.36272580675541
C        12.95958789229805    3.42789614524178    0.13781750226919
C        14.06741326966731    3.05972742957625    0.94063165341833
N        14.20721661495701    1.70667708807317    0.91666866808262
C        14.81609493736732    4.06249888808903    1.58983346658622
C        16.19102355578586    4.17414341828300    1.62434247442974
C        17.13555765789691    5.07871203732182    2.26395616867380
C        18.36621795499822    4.70227636203866    1.89029808266971
C        18.20228011295151    3.56496047132398    0.99619970041855
N        16.89116523816168    3.28920403704584    0.89032062790657
C        19.05507746868445    2.73061423666506    0.29558683511258
C        18.78635657021279    1.43012803501872   -0.16675626643637
C        19.79788998658034    0.43832274505179   -0.08120338426514
C        19.26698381102392   -0.71628190289120   -0.58478872121802
C        17.93383068072015   -0.42354925093334   -0.97401668276148
N        17.66279409044525    0.87746555488793   -0.69255340250540
C        17.13553279703946   -1.44510208796713   -1.52461770855735
C        15.80326871725805   -1.71029842395931   -1.25731563857493
N        15.04577303614871   -0.67837924715302   -0.83201969820248
H        15.30071144156490   -3.88923193326312   -1.54896638025572
H        12.85403880289643   -3.12541181032097   -0.80226120538794
H        11.57301034967312    2.19631417589761   -1.02815546624947
H        12.60169239403619    4.43220987225592   -0.06875175812919
H        14.93419548130162    1.14061307146543    1.45836282153715
H        14.26745140353827    4.88354507851659    2.07057322121916
H        16.86664020825614    5.88671991882880    2.92203222231369
H        19.31269397086708    5.12493953448974    2.18574526726156
H        20.05615636855159    3.14335803815479    0.12372803838933
H        20.80060888272975    0.55686208897905    0.32481575427302
H        19.77448912525505   -1.67661411942343   -0.65067856448390
H        16.74829727998437    1.38797425386471   -0.90207993011091
H        17.61269577950494   -2.14432898175854   -2.22661729964048
C       -11.41400590209089   -0.33221638173465    0.34287287194980
C       -10.23693036467076   -0.65621607905314    0.30742234574865
C        -0.61852534088471   -1.56753717438912   -0.17751538906360
C         0.60199465238135   -1.56043399921562   -0.07806676630459
C        10.29165961350765   -0.75072188883169   -0.20142241272169
C        11.48140174074273   -0.48621782416362   -0.21819134426209
C        -8.42734140071691   -4.56607403805449    0.44278031940590
C        -9.29033864308973   -3.53948259025086    0.38391926099228
C        -8.51665096361507   -2.31711305696372    0.29784765079944
C        -8.85506260873013   -0.95482151514579    0.20771814561618
C        -7.91054218185639    0.10810351393271    0.09059035261909
C        -8.06472937660617    1.24369005874427    0.91042570881369
C        -7.04223845079154    2.08972338328068    0.59517257083497
C        -6.25111580097231    1.47905920179805   -0.40773920827397
N        -6.80753929170026    0.27042815810549   -0.68894255742333
C        -5.09935496515819    2.13095192722997   -0.89894459089304
C        -3.86099230412500    1.51769842040872   -1.09132868860635
C        -2.62130238320318    1.89294010675014   -1.76008282145409
C        -1.76828459822302    0.86717712036154   -1.59138401351424
C        -2.44022971245648   -0.16604141446080   -0.81320845429959
N        -3.66852784861986    0.28749635050245   -0.56760283990890
C        -2.02757515735046   -1.43240377422243   -0.31962989545375
C        -2.88147813043023   -2.47399637062270    0.11413529447702
C        -2.54471245572093   -3.34272466491852    1.18626522634933
C        -3.58986688156660   -4.19203052005386    1.38823160222597
C        -4.58880839731532   -3.85721248994832    0.45145196130436
N        -4.13569728856090   -2.82068809457377   -0.30006781271998
C        -5.82055180035942   -4.54575755073817    0.43938217716079
C        -7.09562044120078   -3.97611834666226    0.39667230033410
N        -7.21867934267738   -2.65478211456562    0.32004077704088
H        -8.62976688029703   -5.61938421386901    0.50818875399490
H       -10.37101575766234   -3.57392143080776    0.38487812821591
H        -8.83218973492420    1.41770429138744    1.65894743003753
H        -6.88993969958904    3.04573878003579    1.08285651961898
H        -6.46465198843153   -0.40728892231704   -1.43551068356668
H        -5.12348569092268    3.19374074890022   -1.09364344810245
H        -2.41802516686506    2.79783150796102   -2.30453108040739
H        -0.75725312555826    0.80714362427830   -1.97971328866206
H        -1.61030371891881   -3.30885521792487    1.74908813408133
H        -3.65245539096518   -4.96429304901536    2.15422308865919
H        -4.67105229972099   -2.39377234027260   -1.12634508364069
H        -5.78861341947750   -5.64458175284815    0.53140703314434
C         2.55182342874789    2.06445438334759    1.01919044061643
C         1.68701248490550    1.04415587639206    0.92478765336448
C         2.42461583896637   -0.09107659695301    0.37011863705233
C         2.01033115873217   -1.41170643272696    0.05884894433433
C         2.87171949141151   -2.50336708299447   -0.18741057197433
C         2.55836718767425   -3.53236322373727   -1.11799674503043
C         3.60901452482640   -4.40224162768477   -1.15192417802208
C         4.58391730247366   -3.92332153364382   -0.25446332908018
N         4.10888951066641   -2.77943007859942    0.30627068790099
C         5.81413052212733   -4.58924422528771   -0.08612917949422
C         7.08868965004667   -4.03099089491585   -0.03904397657547
C         8.41789091237351   -4.61405899273336    0.11748380043643
C         9.28946191150626   -3.59509484781382    0.09583675829170
C         8.53524380785975   -2.36290319911383   -0.07434501821145
N         7.24029462419959   -2.70431906882807   -0.15234955755255
C         8.89412116700443   -1.00472224316727   -0.15151466016374
C         7.98066306293637    0.08846425218638   -0.23492820229054
C         8.17391833615159    1.15437676778242   -1.14733835379603
C         7.14156516774624    2.03393604418528   -0.99196454370467
C         6.28275874724610    1.52718717478431    0.01081569999062
N         6.83098702774786    0.35750698891285    0.42805228052690
C         5.08658868895860    2.18669386773225    0.38912284695372
C         3.84597284869273    1.59935642617361    0.53289010897661
N         3.67069961656010    0.30333781397064    0.17315371328025
H         2.28496240737144    3.03589602481606    1.40867354728720
H         0.65509414648801    1.08602927682695    1.23015679312531
H         1.64123960913489   -3.58619222006294   -1.70395731406007
H         3.70260821068523   -5.28524150744846   -1.77132731487937
H         4.62347999295234   -2.22226108167333    1.06744762038159
H         5.80465034328716   -5.69245003953355   -0.03922933154409
H         8.64137755906544   -5.66171161889777    0.23824366636496
H        10.36632769498516   -3.63564266297138    0.19932563675731
H         8.97764542870253    1.25990484784849   -1.86788313396324
H         7.01414907947092    2.94745799140050   -1.57154731910507
H         6.43066284708152   -0.24715440793732    1.22703968330285
H         5.14142709463490    3.26439602451585    0.52546745813239
152
 energy: -255.962209790328 gnorm: 0.086034799633 xtb: 6.4.1 (bd6e46d)
C       -12.71606698757023    3.25344855544725    2.26297971508032
C       -12.06726776313301    2.10472894643832    1.96736105622790
C       -12.94625605529261    1.37412713523103    1.06705941821300
C       -12.73946905604460    0.13157156810515    0.43666303938045
C       -13.79512174179364   -0.56659961277982   -0.21713975591749
C       -13.57968706834020   -1.18717223035246   -1.46367704669377
C       -14.76671279632829   -1.74339198683251   -1.86346792369327
C       -15.72805981666060   -1.45755314033394   -0.87099506975664
N       -15.11757251693069   -0.72879079345058    0.12033393064598
C       -17.07245549034208   -1.87041019932252   -1.01238747741375
C       -18.17214970697586   -1.07550236260587   -0.76333530938946
C       -19.59419158039250   -1.40419763656164   -0.75943681539388
C       -20.24240610000133   -0.25232163786262   -0.48363464389029
C       -19.22061536660166    0.77878414232480   -0.31969680181961
N       -18.00420372624018    0.23326333262450   -0.49493735739482
C       -19.31080863725575    2.13704879661427   -0.05433813290466
C       -18.20340222732600    2.97463187120148    0.19824311240399
C       -18.09545003316212    4.26126931873023   -0.38212146559888
C       -16.91468162905577    4.81088507466916    0.03869806564368
C       -16.27797342406177    3.86959925761155    0.88219804078516
N       -17.07741258556835    2.75544442035066    0.95230031435194
C       -15.02139447457397    4.12781035952022    1.47077674812002
C       -13.98820479193299    3.21198054402933    1.54959386050893
N       -14.07546714771009    2.05450416093058    0.85630335963316
H       -12.40434846926585    4.03821272958902    2.92139334372991
H       -11.11801957934324    1.77497148692716    2.34754488543159
H       -12.66137005916684   -1.18217570947157   -2.01697218550620
H       -14.94336937192019   -2.24762609370026   -2.79335753510769
H       -15.55196462883697   -0.43828540071192    0.98764591358838
H       -17.23269543059019   -2.85287796627254   -1.44156568766910
H       -20.04683769061809   -2.36902480416574   -0.90362574607763
H       -21.30221648637603   -0.13748978733486   -0.37280397440571
H       -20.27811824417235    2.61981689976743   -0.13271962496837
H       -18.78687690927418    4.69917778112251   -1.07620353668683
H       -16.51357636555309    5.75943114470353   -0.26275499086370
H       -16.90969103888623    1.94610518125151    1.53492721445454
H       -14.83592276216371    5.14555900819517    1.79655778136627
C        14.96252569161540   -2.88850993686718   -1.30346025656346
C        13.72655738633378   -2.51323433268739   -0.89985492788105
C        13.80505095080924   -1.09512484613754   -0.59812895793971
C        12.84455690672232   -0.15552208879589   -0.19773526059693
C        13.18831024097431    1.19797412154478    0.12996479807197
C        12.41555810203048    2.26933691302045   -0.35263094812258
C        12.94731597866475    3.42884641708038    0.15352175508518
C        14.06089463053391    3.07922203917739    0.94536957190327
N        14.20748503480650    1.71256185762447    0.89411125766602
C        14.81937822823659    4.07304044857753    1.61405819945250
C        16.19419433211370    4.14657818944617    1.63101354871284
C        17.12754409377967    5.07634784973345    2.26431886426806
C        18.36501308301276    4.70260947605753    1.87061461180541
C        18.17454679833791    3.55936092682660    0.97697969358751
N        16.87650208941013    3.25492528282746    0.89049386523637
C        19.06855737265099    2.74580269402885    0.29567032963038
C        18.80342732186635    1.44474687736302   -0.16931802715226
C        19.80601547998549    0.44270925510148   -0.10181570090895
C        19.27432851513209   -0.71166619179793   -0.60668356033542
C        17.93521752332235   -0.43797698178580   -0.99088753275412
N        17.66279998232669    0.87041803043079   -0.67560910331725
C        17.12938357604798   -1.45940048120998   -1.53493085766546
C        15.78607194221008   -1.67937148934274   -1.25942137662572
N        15.05316528264525   -0.65028191181452   -0.80259229368374
H        15.30217113276856   -3.87651609983234   -1.55461700974476
H        12.85146027352739   -3.12502006605618   -0.79925268626958
H        11.58043721933700    2.18891633671675   -1.02022349297845
H        12.61036390202737    4.42542623565973   -0.05842480868485
H        14.89687542273106    1.17659773719213    1.40910230078182
H        14.26256326864947    4.88887514043285    2.05426063398500
H        16.86334031482464    5.88188191971852    2.92265446118151
H        19.30798851132721    5.12124834405728    2.17440472062257
H        20.07370527911558    3.11840481974741    0.15691022750756
H        20.78711158713100    0.56299895804448    0.31838469294911
H        19.76179589152257   -1.66747833765069   -0.65615070322730
H        16.79527231286384    1.35521957062249   -0.87280828134412
H        17.62902042119743   -2.16782031172786   -2.18499981983909
C       -11.41769998917272   -0.32532190893616    0.34045748637480
C       -10.23833020382978   -0.64664085794228    0.31160667377617
C        -0.61776374200074   -1.56275768332845   -0.17705604856406
C         0.60153171063915   -1.55672440886145   -0.08181375938046
C        10.28834361896435   -0.73900459348718   -0.20872871580815
C        11.48293868366275   -0.47562447065468   -0.22237089748563
C        -8.41937717665419   -4.56464517236676    0.43865878937011
C        -9.29511784442184   -3.53615147620534    0.38100374201251
C        -8.49599981607807   -2.32015024490022    0.27660474814994
C        -8.87801564228732   -0.97228834932111    0.19573228945556
C        -7.92984556734192    0.10416311666529    0.10120512512008
C        -8.07542667104215    1.25167669688533    0.90083542473606
C        -7.04989241887367    2.10821010540536    0.58780458253555
C        -6.24834231369351    1.49449411867540   -0.39846292876980
N        -6.80373357674538    0.26387694356537   -0.66707348532195
C        -5.08131588805306    2.11852574683164   -0.91632646417546
C        -3.86696998085553    1.48556716847640   -1.10051816208943
C        -2.62345065289471    1.89079288880497   -1.75261817390354
C        -1.75642496118886    0.86385466485986   -1.58483117299200
C        -2.46111993128485   -0.16435637363298   -0.82314969151391
N        -3.70678169602245    0.24174578690993   -0.57990688198613
C        -2.00968680611556   -1.42450187144268   -0.32991882439625
C        -2.87234313979156   -2.46582549623438    0.11927408926330
C        -2.52931350976534   -3.34451456951255    1.17776559711934
C        -3.57819384195863   -4.20582562134053    1.37677016260898
C        -4.59441687384285   -3.86713249879824    0.45190868104898
N        -4.14384722307802   -2.80523836341770   -0.29030831305611
C        -5.83597478011654   -4.55394827152097    0.42944758245883
C        -7.08342329757972   -3.96574401240213    0.37599533854454
N        -7.19309619266501   -2.62734982098178    0.29063901172686
H        -8.62718585827328   -5.61527380792591    0.50918472817647
H       -10.36729265091224   -3.57194779321599    0.38702079351151
H        -8.82836632036666    1.40968642474485    1.64712720251670
H        -6.87787740589116    3.04756428266445    1.07016220655421
H        -6.47750611709289   -0.37715772304118   -1.37735369736309
H        -5.12652395821398    3.19045209232747   -1.08339432717048
H        -2.43061665802631    2.79730252760380   -2.29654986200311
H        -0.75815636937552    0.80040658726881   -1.96979218027776
H        -1.61756910486055   -3.30441781029232    1.73904398729595
H        -3.65394139063107   -4.95785491409867    2.13897282192333
H        -4.64400437890951   -2.40296270659270   -1.06405441109030
H        -5.78720233399860   -5.63053305568204    0.55485235003036
C         2.55546455121975    2.07009034289802    1.01753791872064
C         1.68390327141693    1.04164899767846    0.91873294370560
C         2.43938457473292   -0.09014069283654    0.38240442112560
C         1.99165697589602   -1.40411337382946    0.06684788853912
C         2.86288863637411   -2.49968177630010   -0.19381249808513
C         2.54597535544891   -3.53509636847950   -1.10917786527410
C         3.59876889662626   -4.41317919120754   -1.13832523309760
C         4.59219513155650   -3.93078622905548   -0.25238115872997
N         4.12045877064297   -2.76483662962635    0.29744491346324
C         5.83169326123844   -4.59589158380174   -0.07563255946198
C         7.08302536585744   -4.00835647373369   -0.02005153439802
C         8.41183197340353   -4.61090802449396    0.12025732692355
C         9.29461400557765   -3.58692992743072    0.09568968997758
C         8.51092509387051   -2.36348364522937   -0.06197302377131
N         7.20977801108338   -2.67028077706671   -0.12982570091132
C         8.91490811546196   -1.01480614877257   -0.14264315046691
C         7.99440321501127    0.08989587204227   -0.24126462485584
C         8.18826348559248    1.15975468583856   -1.13954034711260
C         7.14910289110365    2.04702531430939   -0.98214062568181
C         6.28294167295800    1.53068345210956    0.00517734887948
N         6.81875270490025    0.33651765845127    0.42290544850481
C         5.07724243540069    2.18071317255893    0.40167700293860
C         3.84852428931965    1.57248682850249    0.54665839762509
N         3.70563537515055    0.26516426128576    0.19130324590037