152
 energy: -256.247522310484 gnorm: 0.000446745611 xtb: 6.4.1 (bd6e46d)
C       -13.43996270077198    3.58037825794466    0.58809652475517
C       -12.61737965459958    2.53110456449390    0.39462793369701
C       -13.47819987223181    1.37474748971966    0.21997278535611
C       -12.98555986005834    0.07433839672682   -0.00368889800832
C       -13.79328042034367   -1.06490635274535   -0.14316586251086
C       -13.36742247634030   -2.39774400522785   -0.38910349950359
C       -14.48389972963296   -3.17984497203399   -0.45917305802508
C       -15.61673463601852   -2.34082864024895   -0.26199561844578
N       -15.14829109217971   -1.07584612647189   -0.07597878121466
C       -16.94676103955631   -2.73460940122624   -0.26403473104094
C       -18.06433112343980   -1.92985717460378   -0.09124479636344
C       -19.42207769974350   -2.45492402626291   -0.11500343281703
C       -20.23614077619090   -1.40102922029995    0.07936052421212
C       -19.36959336190593   -0.24093764167621    0.21980349602634
N       -18.07189968732485   -0.59622610074759    0.11235112140220
C       -19.84711715952537    1.04566146827338    0.43551892497243
C       -19.06406265668617    2.18119468156832    0.57449487898607
C       -19.49287891615061    3.51996739204562    0.80384682608327
C       -18.37943624516145    4.30357585071291    0.87620573225550
C       -17.24171138595622    3.46458919466585    0.69273092049670
N       -17.70575519700228    2.19976473616777    0.51443536110849
C       -15.91137560715021    3.85612806140115    0.70135491284900
C       -14.79282007153460    3.05297246454707    0.53434450143408
N       -14.77438454004605    1.71694246127507    0.31254906289590
H       -13.19206108679807    4.61077227086334    0.75678287113039
H       -11.54521402990352    2.50302954592271    0.38215727790815
H       -12.34539704812624   -2.70077984216120   -0.50607541602032
H       -14.52957051293833   -4.23716873059841   -0.63389928172684
H       -15.71359154974159   -0.25005875777705    0.08381151214331
H       -17.13091390538022   -3.78831991314630   -0.42201410677706
H       -19.67433466671462   -3.48775041804316   -0.26186876433087
H       -21.30787966245164   -1.37199728356643    0.12781238861760
H       -20.91804781770439    1.17222173236994    0.50192100132548
H       -20.51635658559948    3.82654273356184    0.89986461187494
H       -18.33550679486491    5.36269834763555    1.04148385720543
H       -17.14209357922457    1.37272460816354    0.35873313905244
H       -15.72520502691725    4.90909393282521    0.86264734871104
C        14.27076307209723   -2.45072839115741   -1.73035425372293
C        13.21752751397065   -1.78394232215025   -1.21969529342496
C        13.77299637623356   -0.66696281010718   -0.47672422383749
C        12.98055200953719    0.27124247432403    0.21198327282243
C        13.49239088955141    1.37433863240424    0.91446490522979
C        12.75837819435433    2.34127533262866    1.65197358680567
C        13.65444777643383    3.23192970173237    2.16900570477778
C        14.95628938248875    2.82546713638694    1.76260697123734
N        14.80580554869516    1.70037650945148    1.01019790625604
C        16.15245710608589    3.45469418694023    2.07514204761769
C        17.43213997328712    3.06319341484277    1.70767151251641
C        18.62342087125480    3.80387194776580    2.09745620609374
C        19.66908334440456    3.13367556039596    1.57914634061318
C        19.10844737705490    1.98909631008503    0.87765157740356
N        17.76231470689471    1.98026482435968    0.97387322881008
C        19.88366961916809    1.04798338978983    0.21176503340233
C        19.39725665110699   -0.05767668328624   -0.46844489085665
C        20.13756281745229   -1.05143961478409   -1.17068440496592
C        19.24480395116655   -1.94216957164803   -1.68888907720598
C        17.93624991003101   -1.51643818253147   -1.31674251465478
N        18.08156656229509   -0.38168608751069   -0.58319559159112
C        16.73828454364295   -2.13277448737424   -1.64584970078524
C        15.45693287371652   -1.73039606596015   -1.29911170201774
N        15.11505089686673   -0.65722690092657   -0.54697077854401
H        14.28004112863402   -3.33379703650745   -2.33998784001675
H        12.17002693231135   -1.98776694725682   -1.32589910466145
H        11.69316009186047    2.33579739735626    1.77512676769289
H        13.44420416322144    4.08928737994252    2.77835729258288
H        15.55336590536529    1.16671832209903    0.58190860703842
H        16.07607365426272    4.34921177847132    2.67781570368684
H        18.61829989480618    4.70292154477910    2.68366499367775
H        20.71682628481559    3.35706314247621    1.64353357831459
H        20.95472160469985    1.18929691327338    0.22462849863771
H        21.20642052781156   -1.06900945221055   -1.25972304784692
H        19.45810248386025   -2.81481856245902   -2.27537219890101
H        17.33427841774555    0.16417431348941   -0.17141207421718
H        16.81249193018553   -3.02835297909162   -2.24737825186816
C       -11.59793902498661   -0.09613216414255   -0.09387724207852
C       -10.39558619002696   -0.23735444714483   -0.17699718432742
C        -0.60790372914723   -1.00498860561127   -0.28879497594758
C         0.60199950047103   -0.97148853473388   -0.19524509238946
C        10.38339269751760   -0.02722520871694    0.18216732244074
C        11.58952892680536    0.10700476257922    0.19705093455535
C        -8.25873629868884   -3.67095561524833    0.91370759892739
C        -9.16559252574832   -2.71261160905653    0.64045175259119
C        -8.41033887380174   -1.57946092505529    0.13925115328609
C        -9.00446028553959   -0.36840379509871   -0.26408711508373
C        -8.27908564164842    0.72833398737259   -0.75758434282067
C        -8.79016554255079    1.95991129369701   -1.24464181522084
C        -7.72494912190003    2.71500877177268   -1.64474388875515
C        -6.54193697389357    1.96074756074444   -1.40880535330870
N        -6.92827160349622    0.77017857486430   -0.87396728232261
C        -5.24267774378928    2.36953387221977   -1.67559114043808
C        -4.06261764761693    1.68054708387882   -1.44785956297901
C        -2.76160753436204    2.24433567449497   -1.76482547669649
C        -1.84980319030302    1.32556978478413   -1.39135516950966
C        -2.60540526656151    0.20778504706091   -0.85582655350796
N        -3.92680585702122    0.44461177996795   -0.90913504313876
C        -2.00468101562712   -0.96994401142016   -0.36699729388275
C        -2.73005890842121   -2.09380698362448    0.05818020177466
C        -2.22180677622396   -3.33108719837629    0.53269565069437
C        -3.29229174936320   -4.12313830298159    0.83642665865318
C        -4.47626767245243   -3.38189903330701    0.56396467176575
N        -4.08442360873923   -2.16750596916971    0.08995156432734
C        -5.77923145350921   -3.81142352193834    0.77615797066797
C        -6.95887400178035   -3.10828544282939    0.58752638064859
N        -7.09256800733675   -1.84377612847673    0.12117335819746
H        -8.41646269515959   -4.65861074385989    1.30267310300497
H       -10.23120429552720   -2.73082019577881    0.76224650490114
H        -9.83048726330016    2.21549142367458   -1.29280543618343
H        -7.74685136789298    3.70140633584918   -2.06558181068020
H        -6.32570060051730    0.00181788181995   -0.59996686701000
H        -5.14074853568782    3.35519651348098   -2.10921425281722
H        -2.60538938577157    3.20862779274520   -2.20886795705507
H        -0.78132695900474    1.35823060219969   -1.47708414414449
H        -1.18009673890687   -3.56735861604958    0.62882432980708
H        -3.27379515109553   -5.12459478378995    1.22041184664790
H        -4.68564837900237   -1.40155878134885   -0.19381003358238
H        -5.88367026213014   -4.81711071284959    1.16067745188418
C         2.63603414383255    2.59617055778368    0.51689067995508
C         1.75663709786224    1.59214973442464    0.33392553556830
C         2.55323699243623    0.39626999237478    0.12760479216068
C         1.99490211561932   -0.87812707584219   -0.09839978593726
C         2.75854482793070   -2.04825818098187   -0.23084444465140
C         2.29469767356163   -3.37251509880579   -0.44397621205025
C         3.39128891615687   -4.18433391305877   -0.50663372126504
C         4.54758129940852   -3.37154486790457   -0.33960115219500
N         4.11346479533490   -2.09188775491750   -0.17599668918717
C         5.86475674730980   -3.81004533184046   -0.34684427103177
C         7.02352552675395   -3.06088432037777   -0.21605157700304
C         8.34519058202883   -3.66528229745771   -0.23948602646607
C         9.22599547716406   -2.65516606919802   -0.10149464944783
C         8.43261271666402   -1.44470341780325    0.00251400949766
N         7.11815288462633   -1.71843424292827   -0.06269918147645
C         8.99025921879348   -0.16152755397794    0.16155660022398
C         8.22313858021807    1.00630363227341    0.30688294983583
C         8.68818886722573    2.33752943702421    0.46786034641447
C         7.59128170083028    3.14333871933527    0.58025351073959
C         6.43417032182542    2.32160531563259    0.48207773179792
N         6.86719895222601    1.04186247036692    0.31618738570505
C         5.11652507016864    2.75364435644657    0.54431416061926
C         3.95889678518003    2.00270555831179    0.42240020956357
N         3.86693260421817    0.67012008794706    0.19460292987562
H         2.44460776005984    3.63581901596630    0.70113565199106
H         0.68479027614058    1.61976519063098    0.35007133687647
H         1.26338612000277   -3.65059603615578   -0.54045059591123
H         3.40834048662254   -5.24619777486818   -0.65780234889552
H         4.68599793272949   -1.26574471707499   -0.03980093820018
H         6.00211742215050   -4.87508232207703   -0.47738286188831
H         8.53451248374307   -4.71624075663216   -0.34540608996845
H        10.29690672718295   -2.69072497045762   -0.05498729541484
H         9.72027191259833    2.62787094572501    0.48120163708759
H         7.57516585707078    4.20750473879514    0.71396987253060
H         6.29329394821895    0.21272382689571    0.20666922516309
H         4.97880058118783    3.81480573932647    0.70249279935394
