 Entering Gaussian System
 *********************************************
 Gaussian 98:
 frequency output generated by the xtb code
 *********************************************
                         Standard orientation:
 --------------------------------------------------------------------
  Center     Atomic     Atomic              Coordinates (Angstroms)
  Number     Number      Type              X           Y           Z
 --------------------------------------------------------------------
    1         26             0       42.122034    0.035899   -0.010048
    2          6             0       44.555487   -2.120154    2.665675
    3          6             0       45.564753   -1.542013    1.973376
    4          6             0       44.949874   -0.741312    0.959292
    5          6             0       45.648189    0.021102    0.019896
    6          6             0       44.971047    0.789166   -0.930850
    7          6             0       45.609746    1.582761   -1.935764
    8          6             0       44.617419    2.170572   -2.644156
    9          6             0       43.378908    1.728229   -2.070898
   10          7             0       43.615988    0.877168   -1.023815
   11          6             0       42.149212    2.137305   -2.548632
   12          6             0       40.909439    1.755868   -2.075321
   13          6             0       39.680088    2.235008   -2.644060
   14          6             0       38.675082    1.653106   -1.951936
   15          6             0       39.293488    0.820426   -0.961377
   16          7             0       40.653569    0.893485   -1.045502
   17          6             0       38.612676    0.043456   -0.045420
   18          6             0       39.271702   -0.735614    0.884517
   19          6             0       38.629946   -1.564760    1.863190
   20          6             0       39.618316   -2.149555    2.576447
   21          6             0       40.861008   -1.676369    2.032052
   22          7             0       40.629525   -0.813979    0.996483
   23          6             0       42.089335   -2.064770    2.529071
   24          6             0       43.330521   -1.665777    2.072791
   25          7             0       43.592621   -0.816758    1.030169
   26          1             0       44.614798   -2.790661    3.501202
   27          1             0       46.623128   -1.627079    2.124072
   28          1             0       46.671057    1.656284   -2.070583
   29          1             0       44.696799    2.839500   -3.479248
   30          1             0       42.159604    2.825358   -3.382156
   31          1             0       39.618946    2.924146   -3.464403
   32          1             0       37.615735    1.761831   -2.082327
   33          1             0       37.533779    0.045432   -0.056489
   34          1             0       37.567731   -1.669356    1.971848
   35          1             0       39.537601   -2.837605    3.396012
   36          1             0       42.079606   -2.752055    3.363230
   37         26             0       97.494943    0.036164   -0.008218
   38          6             0       95.019974    2.420183    2.423366
   39          6             0       94.022248    1.755646    1.794811
   40          6             0       94.652644    0.866890    0.867336
   41          6             0       93.968593    0.004303    0.006990
   42          6             0       94.660651   -0.851754   -0.853398
   43          6             0       94.038273   -1.757918   -1.769359
   44          6             0       95.042178   -2.410666   -2.400330
   45          6             0       96.271502   -1.894241   -1.870831
   46          7             0       96.017290   -0.934476   -0.926838
   47          6             0       97.509110   -2.341359   -2.290564
   48          6             0       98.741230   -1.892807   -1.857680
   49          6             0       99.979814   -2.418416   -2.361724
   50          6             0      100.973367   -1.744120   -1.740521
   51          6             0      100.338787   -0.808895   -0.857565
   52          7             0       98.980240   -0.911916   -0.935630
   53          6             0      101.004035    0.084119   -0.041428
   54          6             0      100.329536    0.956205    0.789621
   55          6             0      100.954712    1.906104    1.663598
   56          6             0       99.955040    2.547834    2.308970
   57          6             0       98.722078    1.989124    1.827263
   58          7             0       98.970420    1.019659    0.895456
   59          6             0       97.486510    2.402926    2.284193
   60          6             0       96.253556    1.930446    1.878698
   61          7             0       96.008215    0.972409    0.930615
   62          1             0       94.947371    3.171529    3.185858
   63          1             0       92.962436    1.835097    1.938036
   64          1             0       92.978899   -1.857356   -1.902626
   65          1             0       94.976494   -3.169230   -3.156262
   66          1             0       97.512404   -3.120339   -3.039864
   67          1             0      100.054531   -3.198628   -3.094731
   68          1             0      102.034738   -1.852302   -1.853842
   69          1             0      102.082818    0.100133   -0.052423
   70          1             0      102.014597    2.044973    1.755287
   71          1             0      100.022133    3.326741    3.044101
   72          1             0       97.482704    3.177473    3.038085
   73          6             0       47.049400    0.016740    0.027500
   74          6             0       48.261821    0.016396    0.029720
   75          6             0       58.124914    0.020313   -0.065513
   76          6             0       59.337903    0.024647   -0.070219
   77          6             0       69.201292    0.068432    0.019701
   78          6             0       70.414150    0.069650    0.019849
   79          6             0       80.278412    0.045658   -0.034402
   80          6             0       81.491385    0.041534   -0.037771
   81          6             0       91.354940   -0.000429   -0.001540
   82          6             0       92.567406    0.000172    0.004899
   83         26             0       53.193076    0.018418   -0.014741
   84          6             0       50.743101   -3.093112    1.413690
   85          6             0       49.737244   -2.276779    1.020789
   86          6             0       50.356852   -1.092805    0.509181
   87          6             0       49.662606    0.018392    0.023608
   88          6             0       50.346613    1.131433   -0.472674
   89          6             0       49.716478    2.317882   -0.965373
   90          6             0       50.713736    3.135221   -1.377564
   91          6             0       51.946128    2.444074   -1.130755
   92          7             0       51.701120    1.221274   -0.563237
   93          6             0       53.177160    2.972389   -1.465623
   94          6             0       54.413856    2.393469   -1.260133
   95          6             0       55.638359    3.018157   -1.669282
   96          6             0       56.644098    2.197801   -1.284649
   97          6             0       56.027777    1.080892   -0.637088
   98          7             0       54.672467    1.199028   -0.640534
   99          6             0       56.724667    0.017956   -0.054809
  100          6             0       56.040581   -1.045443    0.541679
  101          6             0       56.670977   -2.163307    1.173872
  102          6             0       55.673851   -2.983594    1.580418
  103          6             0       54.440547   -2.357382    1.201158
  104          7             0       54.685538   -1.162820    0.576097
  105          6             0       53.208558   -2.934201    1.438629
  106          6             0       51.970096   -2.404286    1.135046
  107          7             0       51.712958   -1.183065    0.569764
  108          1             0       50.679844   -4.070611    1.851472
  109          1             0       48.678386   -2.442847    1.056771
  110          1             0       48.657394    2.485927   -0.974978
  111          1             0       50.641305    4.114958   -1.808871
  112          1             0       53.172127    3.942905   -1.941494
  113          1             0       55.700278    3.958222   -2.182676
  114          1             0       57.700660    2.313326   -1.425252
  115          1             0       57.730441   -2.279426    1.289937
  116          1             0       55.746969   -3.924539    2.090724
  117          1             0       53.214327   -3.904405    1.915137
  118         26             0       64.269913    0.046005   -0.032613
  119          6             0       61.817821   -3.337652    0.467163
  120          6             0       60.813954   -2.450952    0.270777
  121          6             0       61.432494   -1.170774    0.111792
  122          6             0       60.738146    0.029374   -0.067735
  123          6             0       61.425139    1.234936   -0.239080
  124          6             0       60.798002    2.508905   -0.413963
  125          6             0       61.797194    3.404241   -0.593971
  126          6             0       63.028550    2.672555   -0.519768
  127          7             0       62.780205    1.345152   -0.287331
  128          6             0       64.261782    3.269175   -0.692943
  129          6             0       65.498499    2.659800   -0.615135
  130          6             0       66.726678    3.369661   -0.826940
  131          6             0       67.730581    2.482240   -0.633850
  132          6             0       67.108889    1.237556   -0.300263
  133          7             0       65.753172    1.349419   -0.306204
  134          6             0       67.801068    0.063795    0.011647
  135          6             0       67.113125   -1.116130    0.309422
  136          6             0       67.738466   -2.354235    0.660288
  137          6             0       66.739083   -3.252323    0.825436
  138          6             0       65.509744   -2.555448    0.579810
  139          7             0       65.758870   -1.241993    0.279478
  140          6             0       64.278104   -3.178386    0.622746
  141          6             0       63.043363   -2.594066    0.420607
  142          7             0       62.787345   -1.268598    0.185996
  143          1             0       61.753828   -4.396351    0.629046
  144          1             0       59.757403   -2.626889    0.223544
  145          1             0       59.739161    2.675107   -0.388776
  146          1             0       61.726641    4.461846   -0.760226
  147          1             0       64.258799    4.327912   -0.910849
  148          1             0       66.792209    4.408160   -1.088419
  149          1             0       68.789315    2.632229   -0.713214
  150          1             0       68.796018   -2.492694    0.770618
  151          1             0       66.808285   -4.290146    1.088665
  152          1             0       64.280817   -4.237662    0.837993
  153         26             0       75.346071    0.058581   -0.005079
  154          6             0       72.870802   -3.310640   -0.489117
  155          6             0       71.872163   -2.402157   -0.389978
  156          6             0       72.500763   -1.134825   -0.175748
  157          6             0       71.814404    0.067904    0.015741
  158          6             0       72.508130    1.267338    0.200175
  159          6             0       71.889103    2.537951    0.422190
  160          6             0       72.893918    3.440832    0.510799
  161          6             0       74.120083    2.714868    0.347168
  162          7             0       73.863527    1.380558    0.171486
  163          6             0       75.356397    3.330087    0.344620
  164          6             0       76.588202    2.720844    0.209585
  165          6             0       77.818818    3.457383    0.196559
  166          6             0       78.817474    2.549921    0.088808
  167          6             0       78.190733    1.264624    0.043012
  168          7             0       76.836219    1.377533    0.099921
  169          6             0       78.878157    0.049292   -0.028182
  170          6             0       78.184488   -1.162789   -0.093185
  171          6             0       78.804172   -2.450804   -0.154452
  172          6             0       77.799547   -3.352853   -0.252291
  173          6             0       76.572587   -2.610174   -0.242727
  174          7             0       76.828750   -1.268882   -0.131373
  175          6             0       75.335607   -3.213013   -0.358389
  176          6             0       74.102804   -2.591304   -0.341150
  177          7             0       73.855703   -1.255322   -0.162675
  178          1             0       72.799545   -4.369327   -0.648000
  179          1             0       70.812915   -2.552031   -0.462158
  180          1             0       70.831533    2.694037    0.505697
  181          1             0       72.830296    4.499706    0.671734
  182          1             0       75.360255    4.404890    0.459564
  183          1             0       77.889250    4.526079    0.260457
  184          1             0       79.875528    2.713906    0.033018
  185          1             0       79.862168   -2.620050   -0.115931
  186          1             0       77.863760   -4.421416   -0.324231
  187          1             0       75.332038   -4.287628   -0.474947
  188         26             0       86.423332    0.023017   -0.029193
  189          6             0       83.952083   -3.083895   -1.425009
  190          6             0       82.952805   -2.232014   -1.096031
  191          6             0       83.579036   -1.071361   -0.541542
  192          6             0       82.891681    0.037312   -0.038720
  193          6             0       83.585340    1.142343    0.463574
  194          6             0       82.964981    2.311194    1.007444
  195          6             0       83.968918    3.157511    1.336395
  196          6             0       85.196309    2.496800    0.998561
  197          7             0       84.940961    1.256027    0.476087
  198          6             0       86.432532    3.086119    1.175115
  199          6             0       87.666020    2.527634    0.904137
  200          6             0       88.897956    3.232635    1.111025
  201          6             0       89.897176    2.380800    0.781656
  202          6             0       89.268665    1.159593    0.380303
  203          7             0       87.913505    1.261451    0.443267
  204          6             0       89.954204    0.005733   -0.009247
  205          6             0       89.261041   -1.140296   -0.408093
  206          6             0       89.881627   -2.366911   -0.805087
  207          6             0       88.877763   -3.207635   -1.148533
  208          6             0       87.650726   -2.490661   -0.954349
  209          7             0       87.905645   -1.228050   -0.487178
  210          6             0       86.414903   -3.035688   -1.241582
  211          6             0       85.182515   -2.435444   -1.074753
  212          7             0       84.933855   -1.195521   -0.547214
  213          1             0       83.882116   -4.060233   -1.864337
  214          1             0       81.894569   -2.353160   -1.218436
  215          1             0       81.907072    2.441668    1.122507
  216          1             0       83.904130    4.137557    1.768187
  217          1             0       86.434940    4.092436    1.569715
  218          1             0       88.968830    4.244196    1.461559
  219          1             0       90.956748    2.545530    0.792414
  220          1             0       90.939574   -2.542155   -0.804233
  221          1             0       88.942458   -4.219112   -1.500511
  222          1             0       86.411754   -4.040456   -1.640108
 --------------------------------------------------------------------
     1 basis functions        1 primitive gaussians
     1 alpha electrons        1 beta electrons

 Harmonic frequencies (cm**-1), IR intensities (km*mol⁻¹),
 Raman scattering activities (A**4/amu), Raman depolarization ratios,
 reduced masses (AMU), force constants (mDyne/A) and normal coordinates:
                      1                      2                      3
                        a                      a                      a 
 Frequencies --    -1.5699                 1.0814                 2.5366
 Red. masses --    17.9960                17.9737                17.3968
 Frc consts  --     0.0000                 0.0000                 0.0000
 IR Inten    --    19.0528                32.3410                 5.4113
 Raman Activ --     0.0000                 0.0000                 0.0000
 Depolar     --     0.0000                 0.0000                 0.0000
 Atom AN      X      Y      Z        X      Y      Z        X      Y      Z
   1  26    -0.00  -0.14  -0.19     0.00   0.13  -0.07     0.00  -0.06   0.12
   2   6    -0.02  -0.05  -0.07    -0.01   0.05  -0.03     0.04  -0.02   0.02
   3   6    -0.01  -0.05  -0.05    -0.01   0.04  -0.03     0.03  -0.02   0.00
   4   6    -0.01  -0.05  -0.06    -0.01   0.04  -0.03     0.02  -0.02   0.01
   5   6    -0.00  -0.04  -0.05     0.00   0.04  -0.03     0.00  -0.02   0.00
   6   6     0.01  -0.05  -0.06     0.01   0.04  -0.03    -0.01  -0.02   0.01
   7   6     0.01  -0.05  -0.05     0.01   0.04  -0.03    -0.03  -0.02   0.00
   8   6     0.02  -0.05  -0.06     0.02   0.04  -0.03    -0.04  -0.02   0.02
   9   6     0.01  -0.06  -0.08     0.01   0.05  -0.03    -0.03  -0.03   0.04
  10   7     0.01  -0.06  -0.08     0.01   0.05  -0.04    -0.02  -0.03   0.04
  11   6     0.01  -0.06  -0.09     0.01   0.06  -0.03    -0.04  -0.03   0.06
  12   6     0.01  -0.07  -0.10     0.01   0.07  -0.04    -0.03  -0.03   0.07
  13   6     0.02  -0.08  -0.11     0.02   0.07  -0.04    -0.04  -0.03   0.09
  14   6     0.01  -0.08  -0.12     0.01   0.08  -0.04    -0.03  -0.04   0.11
  15   6     0.01  -0.08  -0.12     0.01   0.08  -0.04    -0.02  -0.04   0.10
  16   7     0.01  -0.08  -0.11     0.01   0.07  -0.04    -0.02  -0.04   0.08
  17   6    -0.00  -0.08  -0.12     0.00   0.08  -0.04    -0.00  -0.04   0.11
  18   6    -0.01  -0.08  -0.12    -0.01   0.08  -0.04     0.02  -0.04   0.10
  19   6    -0.01  -0.08  -0.12    -0.01   0.08  -0.04     0.03  -0.04   0.11
  20   6    -0.02  -0.08  -0.12    -0.02   0.08  -0.03     0.04  -0.03   0.09
  21   6    -0.01  -0.07  -0.10    -0.01   0.07  -0.03     0.03  -0.03   0.07
  22   7    -0.01  -0.08  -0.11    -0.01   0.07  -0.04     0.02  -0.04   0.08
  23   6    -0.02  -0.06  -0.09    -0.01   0.06  -0.03     0.04  -0.03   0.06
  24   6    -0.01  -0.06  -0.08    -0.01   0.05  -0.03     0.03  -0.03   0.04
  25   7    -0.01  -0.06  -0.08    -0.01   0.05  -0.04     0.02  -0.03   0.04
  26   1    -0.01  -0.02  -0.02    -0.01   0.01  -0.01     0.02  -0.01   0.01
  27   1    -0.00  -0.01  -0.01    -0.00   0.01  -0.01     0.01  -0.01  -0.00
  28   1     0.00  -0.01  -0.01     0.00   0.01  -0.01    -0.01  -0.01  -0.00
  29   1     0.01  -0.01  -0.02     0.01   0.01  -0.01    -0.02  -0.01   0.01
  30   1     0.01  -0.02  -0.03     0.01   0.02  -0.01    -0.02  -0.01   0.02
  31   1     0.01  -0.02  -0.03     0.01   0.02  -0.01    -0.02  -0.01   0.03
  32   1     0.00  -0.03  -0.04     0.00   0.02  -0.01    -0.01  -0.01   0.04
  33   1     0.00  -0.03  -0.04     0.00   0.03  -0.01    -0.00  -0.01   0.04
  34   1    -0.00  -0.03  -0.04    -0.00   0.03  -0.01     0.01  -0.01   0.04
  35   1    -0.01  -0.02  -0.03    -0.01   0.02  -0.01     0.02  -0.01   0.03
  36   1    -0.01  -0.02  -0.03    -0.01   0.02  -0.01     0.02  -0.01   0.02
  37  26     0.00  -0.10  -0.11     0.00   0.12  -0.19    -0.00  -0.14  -0.08
  38   6     0.02  -0.03  -0.04     0.01   0.04  -0.06     0.04  -0.03  -0.02
  39   6     0.01  -0.03  -0.04     0.01   0.03  -0.04     0.03  -0.02  -0.01
  40   6     0.01  -0.03  -0.04     0.01   0.04  -0.05     0.02  -0.03  -0.01
  41   6     0.00  -0.03  -0.04     0.00   0.03  -0.04    -0.00  -0.03  -0.01
  42   6    -0.01  -0.03  -0.04    -0.00   0.04  -0.05    -0.02  -0.03  -0.01
  43   6    -0.01  -0.03  -0.04    -0.01   0.03  -0.04    -0.03  -0.03  -0.01
  44   6    -0.02  -0.04  -0.04    -0.01   0.04  -0.05    -0.04  -0.04  -0.01
  45   6    -0.02  -0.04  -0.05    -0.01   0.05  -0.07    -0.03  -0.05  -0.02
  46   7    -0.01  -0.04  -0.05    -0.01   0.05  -0.07    -0.02  -0.05  -0.02
  47   6    -0.02  -0.05  -0.05    -0.01   0.05  -0.08    -0.04  -0.06  -0.03
  48   6    -0.02  -0.05  -0.06    -0.01   0.06  -0.10    -0.03  -0.08  -0.04
  49   6    -0.02  -0.06  -0.06    -0.01   0.07  -0.11    -0.04  -0.09  -0.05
  50   6    -0.01  -0.06  -0.06    -0.01   0.08  -0.13    -0.03  -0.10  -0.06
  51   6    -0.01  -0.06  -0.06    -0.01   0.07  -0.12    -0.02  -0.09  -0.06
  52   7    -0.01  -0.06  -0.06    -0.01   0.07  -0.11    -0.02  -0.08  -0.05
  53   6     0.00  -0.06  -0.06    -0.00   0.08  -0.13     0.00  -0.10  -0.06
  54   6     0.01  -0.06  -0.06     0.00   0.08  -0.12     0.02  -0.09  -0.06
  55   6     0.01  -0.06  -0.06     0.01   0.08  -0.13     0.03  -0.10  -0.06
  56   6     0.02  -0.06  -0.06     0.01   0.07  -0.12     0.04  -0.09  -0.06
  57   6     0.02  -0.05  -0.06     0.01   0.06  -0.10     0.03  -0.07  -0.05
  58   7     0.01  -0.06  -0.06     0.01   0.07  -0.11     0.02  -0.08  -0.05
  59   6     0.02  -0.05  -0.05     0.01   0.06  -0.09     0.04  -0.06  -0.04
  60   6     0.02  -0.04  -0.05     0.01   0.05  -0.07     0.03  -0.05  -0.03
  61   7     0.01  -0.04  -0.05     0.01   0.05  -0.07     0.02  -0.05  -0.03
  62   1     0.01  -0.01  -0.01     0.01   0.01  -0.02     0.02  -0.01  -0.01
  63   1     0.00  -0.01  -0.01     0.00   0.01  -0.01     0.01  -0.00  -0.00
  64   1    -0.00  -0.01  -0.01    -0.00   0.01  -0.01    -0.01  -0.00   0.00
  65   1    -0.01  -0.01  -0.01    -0.01   0.01  -0.02    -0.02  -0.01  -0.00
  66   1    -0.01  -0.01  -0.01    -0.01   0.02  -0.02    -0.02  -0.02  -0.01
  67   1    -0.01  -0.02  -0.02    -0.01   0.02  -0.03    -0.02  -0.03  -0.02
  68   1    -0.00  -0.02  -0.02    -0.00   0.02  -0.04    -0.01  -0.03  -0.02
  69   1     0.00  -0.02  -0.02    -0.00   0.03  -0.04     0.00  -0.03  -0.02
  70   1     0.00  -0.02  -0.02     0.00   0.03  -0.04     0.01  -0.03  -0.02
  71   1     0.01  -0.02  -0.02     0.00   0.02  -0.03     0.02  -0.02  -0.02
  72   1     0.01  -0.01  -0.02     0.01   0.02  -0.02     0.02  -0.02  -0.01
  73   6    -0.00  -0.04  -0.04     0.00   0.03  -0.03     0.00  -0.02  -0.02
  74   6    -0.00  -0.03  -0.02     0.00   0.02  -0.03     0.00  -0.02  -0.04
  75   6     0.00   0.05   0.07     0.00  -0.04  -0.01     0.00  -0.00  -0.08
  76   6     0.00   0.05   0.07     0.00  -0.04  -0.00     0.00   0.00  -0.08
  77   6     0.00   0.05   0.06    -0.00  -0.05   0.06    -0.00   0.05   0.01
  78   6     0.00   0.05   0.06    -0.00  -0.05   0.07    -0.00   0.05   0.02
  79   6     0.00   0.02   0.02    -0.00  -0.03   0.07    -0.00   0.06   0.07
  80   6    -0.00   0.02   0.01    -0.00  -0.03   0.07    -0.00   0.05   0.06
  81   6    -0.00  -0.02  -0.03     0.00   0.02  -0.01    -0.00  -0.00   0.02
  82   6    -0.00  -0.02  -0.03     0.00   0.03  -0.03    -0.00  -0.01   0.01
  83  26    -0.00   0.04   0.09     0.00  -0.03  -0.07     0.00  -0.04  -0.17
  84   6     0.01  -0.00   0.02    -0.02   0.00  -0.03     0.01  -0.03  -0.07
  85   6     0.01  -0.01   0.00    -0.02   0.01  -0.03     0.01  -0.02  -0.06
  86   6     0.00  -0.01   0.01    -0.01   0.00  -0.03     0.00  -0.02  -0.06
  87   6    -0.00  -0.01  -0.00     0.00   0.01  -0.03     0.00  -0.02  -0.05
  88   6    -0.00  -0.01   0.01     0.01   0.00  -0.03    -0.00  -0.02  -0.06
  89   6    -0.01  -0.01   0.00     0.02   0.01  -0.04    -0.01  -0.02  -0.06
  90   6    -0.01   0.00   0.02     0.02  -0.00  -0.04    -0.01  -0.03  -0.07
  91   6    -0.01   0.01   0.03     0.02  -0.01  -0.04    -0.01  -0.02  -0.08
  92   7    -0.00   0.01   0.03     0.01  -0.01  -0.04    -0.00  -0.02  -0.08
  93   6    -0.01   0.02   0.05     0.02  -0.02  -0.04    -0.01  -0.02  -0.09
  94   6    -0.01   0.03   0.06     0.02  -0.02  -0.03    -0.01  -0.02  -0.09
  95   6    -0.01   0.04   0.07     0.02  -0.03  -0.03    -0.01  -0.02  -0.09
  96   6    -0.01   0.05   0.07     0.02  -0.03  -0.02    -0.01  -0.01  -0.09
  97   6    -0.00   0.04   0.06     0.01  -0.03  -0.02    -0.00  -0.01  -0.09
  98   7    -0.00   0.03   0.06     0.01  -0.02  -0.03    -0.00  -0.02  -0.09
  99   6     0.00   0.04   0.07     0.00  -0.03  -0.02     0.00  -0.01  -0.08
 100   6     0.00   0.04   0.06    -0.01  -0.03  -0.02     0.00  -0.01  -0.09
 101   6     0.01   0.05   0.07    -0.01  -0.03  -0.02     0.01  -0.01  -0.09
 102   6     0.01   0.04   0.07    -0.02  -0.03  -0.03     0.01  -0.02  -0.09
 103   6     0.01   0.03   0.06    -0.02  -0.02  -0.03     0.01  -0.02  -0.09
 104   7     0.00   0.03   0.06    -0.01  -0.02  -0.03     0.01  -0.02  -0.09
 105   6     0.01   0.02   0.05    -0.02  -0.02  -0.03     0.01  -0.02  -0.09
 106   6     0.01   0.01   0.03    -0.02  -0.01  -0.03     0.01  -0.02  -0.08
 107   7     0.00   0.01   0.03    -0.01  -0.01  -0.04     0.01  -0.02  -0.08
 108   1     0.00   0.00   0.01    -0.01   0.00  -0.01     0.00  -0.01  -0.02
 109   1     0.00  -0.01  -0.00    -0.00   0.00  -0.01     0.00  -0.01  -0.01
 110   1    -0.00  -0.01  -0.00     0.00   0.00  -0.01    -0.00  -0.01  -0.01
 111   1    -0.00   0.00   0.01     0.01  -0.00  -0.01    -0.00  -0.01  -0.02
 112   1    -0.00   0.01   0.01     0.01  -0.01  -0.01    -0.00  -0.01  -0.03
 113   1    -0.00   0.01   0.02     0.01  -0.01  -0.01    -0.00  -0.01  -0.03
 114   1    -0.00   0.02   0.02     0.00  -0.01  -0.01    -0.00  -0.00  -0.03
 115   1     0.00   0.02   0.02    -0.00  -0.01  -0.01     0.00  -0.00  -0.03
 116   1     0.00   0.01   0.02    -0.01  -0.01  -0.01     0.00  -0.01  -0.03
 117   1     0.00   0.01   0.01    -0.01  -0.00  -0.01     0.00  -0.01  -0.03
 118  26     0.00   0.11   0.16     0.00  -0.10   0.06     0.00   0.06  -0.09
 119   6     0.00   0.05   0.08    -0.01  -0.04   0.01     0.01   0.01  -0.07
 120   6     0.00   0.05   0.07    -0.00  -0.04   0.01     0.01   0.01  -0.07
 121   6     0.00   0.05   0.07    -0.00  -0.04   0.01     0.00   0.01  -0.07
 122   6     0.00   0.05   0.07     0.00  -0.04   0.00     0.00   0.01  -0.07
 123   6    -0.00   0.05   0.07     0.00  -0.04   0.01    -0.00   0.01  -0.07
 124   6    -0.00   0.05   0.07     0.01  -0.04   0.01    -0.01   0.01  -0.07
 125   6    -0.00   0.05   0.07     0.01  -0.04   0.01    -0.01   0.01  -0.07
 126   6    -0.00   0.05   0.07     0.01  -0.05   0.02    -0.01   0.02  -0.05
 127   7    -0.00   0.06   0.08     0.00  -0.05   0.02    -0.00   0.02  -0.06
 128   6    -0.00   0.05   0.07     0.01  -0.05   0.03    -0.01   0.03  -0.04
 129   6    -0.00   0.05   0.07     0.01  -0.05   0.04    -0.01   0.03  -0.03
 130   6    -0.00   0.05   0.07     0.01  -0.05   0.04    -0.01   0.04  -0.02
 131   6    -0.00   0.05   0.07     0.01  -0.05   0.05    -0.01   0.04  -0.01
 132   6    -0.00   0.05   0.07     0.00  -0.05   0.05    -0.00   0.04  -0.01
 133   7    -0.00   0.06   0.08     0.00  -0.05   0.04    -0.00   0.04  -0.03
 134   6     0.00   0.05   0.07    -0.00  -0.05   0.05    -0.00   0.04  -0.01
 135   6     0.00   0.05   0.07    -0.00  -0.05   0.05     0.00   0.04  -0.01
 136   6     0.00   0.05   0.07    -0.01  -0.05   0.05     0.01   0.04  -0.01
 137   6     0.00   0.05   0.07    -0.01  -0.05   0.04     0.01   0.04  -0.02
 138   6     0.00   0.05   0.07    -0.01  -0.05   0.04     0.01   0.03  -0.03
 139   7     0.00   0.06   0.08    -0.00  -0.05   0.04     0.00   0.04  -0.03
 140   6     0.00   0.05   0.07    -0.01  -0.05   0.03     0.01   0.03  -0.04
 141   6     0.00   0.05   0.07    -0.01  -0.05   0.02     0.01   0.02  -0.05
 142   7     0.00   0.06   0.08    -0.00  -0.05   0.02     0.01   0.02  -0.06
 143   1     0.00   0.02   0.02    -0.00  -0.01   0.00     0.00   0.00  -0.02
 144   1     0.00   0.01   0.02    -0.00  -0.01  -0.00     0.00   0.00  -0.02
 145   1    -0.00   0.01   0.02     0.00  -0.01  -0.00    -0.00   0.00  -0.02
 146   1    -0.00   0.02   0.02     0.00  -0.01   0.00    -0.00   0.00  -0.02
 147   1    -0.00   0.02   0.02     0.00  -0.01   0.01    -0.00   0.01  -0.01
 148   1    -0.00   0.02   0.02     0.00  -0.01   0.01    -0.00   0.01  -0.00
 149   1    -0.00   0.02   0.02     0.00  -0.02   0.02    -0.00   0.01   0.00
 150   1     0.00   0.02   0.02    -0.00  -0.02   0.02     0.00   0.01   0.00
 151   1     0.00   0.02   0.02    -0.00  -0.01   0.01     0.00   0.01  -0.00
 152   1     0.00   0.02   0.02    -0.00  -0.01   0.01     0.00   0.01  -0.01
 153  26     0.00   0.08   0.08    -0.00  -0.09   0.18    -0.00   0.12   0.12
 154   6    -0.01   0.04   0.05     0.01  -0.05   0.08     0.00   0.05   0.04
 155   6    -0.01   0.04   0.05     0.01  -0.05   0.08     0.00   0.05   0.03
 156   6    -0.00   0.04   0.05     0.00  -0.05   0.08     0.00   0.06   0.03
 157   6     0.00   0.04   0.05    -0.00  -0.05   0.08    -0.00   0.06   0.03
 158   6     0.00   0.04   0.05    -0.00  -0.05   0.08    -0.00   0.05   0.04
 159   6     0.01   0.04   0.05    -0.01  -0.05   0.08    -0.00   0.05   0.03
 160   6     0.01   0.04   0.04    -0.01  -0.05   0.09    -0.00   0.05   0.04
 161   6     0.01   0.04   0.04    -0.01  -0.05   0.09    -0.00   0.05   0.05
 162   7     0.00   0.04   0.04    -0.00  -0.05   0.09    -0.00   0.06   0.05
 163   6     0.01   0.04   0.03    -0.01  -0.04   0.09    -0.00   0.05   0.06
 164   6     0.01   0.03   0.03    -0.01  -0.04   0.09    -0.00   0.06   0.07
 165   6     0.01   0.03   0.02    -0.01  -0.04   0.09    -0.00   0.06   0.08
 166   6     0.01   0.03   0.02    -0.01  -0.03   0.08    -0.00   0.06   0.08
 167   6     0.00   0.03   0.02    -0.00  -0.04   0.08    -0.00   0.06   0.07
 168   7     0.00   0.03   0.03    -0.00  -0.04   0.09    -0.00   0.06   0.07
 169   6     0.00   0.03   0.02    -0.00  -0.03   0.08    -0.00   0.06   0.07
 170   6    -0.00   0.03   0.02     0.00  -0.04   0.08     0.00   0.06   0.07
 171   6    -0.01   0.03   0.02     0.01  -0.03   0.08     0.00   0.06   0.07
 172   6    -0.01   0.03   0.03     0.01  -0.04   0.08     0.00   0.06   0.07
 173   6    -0.01   0.03   0.03     0.01  -0.04   0.08     0.00   0.06   0.07
 174   7    -0.00   0.03   0.03     0.00  -0.04   0.09     0.00   0.06   0.07
 175   6    -0.01   0.04   0.04     0.01  -0.04   0.09     0.00   0.05   0.06
 176   6    -0.01   0.04   0.04     0.01  -0.05   0.08     0.00   0.05   0.05
 177   7    -0.00   0.04   0.05     0.00  -0.05   0.09     0.00   0.06   0.05
 178   1    -0.00   0.01   0.01     0.00  -0.01   0.02     0.00   0.02   0.01
 179   1    -0.00   0.01   0.02     0.00  -0.02   0.02     0.00   0.02   0.01
 180   1     0.00   0.01   0.02    -0.00  -0.02   0.02    -0.00   0.02   0.01
 181   1     0.00   0.01   0.01    -0.00  -0.01   0.03    -0.00   0.02   0.01
 182   1     0.00   0.01   0.01    -0.00  -0.01   0.03    -0.00   0.02   0.02
 183   1     0.00   0.01   0.01    -0.00  -0.01   0.03    -0.00   0.02   0.02
 184   1     0.00   0.01   0.00    -0.00  -0.01   0.02    -0.00   0.02   0.02
 185   1    -0.00   0.01   0.01     0.00  -0.01   0.02     0.00   0.02   0.02
 186   1    -0.00   0.01   0.01     0.00  -0.01   0.02     0.00   0.02   0.02
 187   1    -0.00   0.01   0.01     0.00  -0.01   0.03     0.00   0.02   0.02
 188  26    -0.00  -0.00  -0.02    -0.00  -0.01   0.08    -0.00   0.05   0.09
 189   6    -0.02   0.01  -0.00     0.00  -0.02   0.06    -0.03   0.04   0.05
 190   6    -0.01   0.01   0.00     0.00  -0.02   0.06    -0.02   0.05   0.06
 191   6    -0.01   0.01   0.00     0.00  -0.02   0.06    -0.01   0.04   0.05
 192   6    -0.00   0.01   0.00    -0.00  -0.02   0.06    -0.00   0.05   0.06
 193   6     0.01   0.01  -0.00    -0.00  -0.02   0.06     0.01   0.04   0.05
 194   6     0.01   0.01   0.00    -0.00  -0.02   0.06     0.02   0.05   0.06
 195   6     0.02   0.01  -0.00    -0.00  -0.02   0.06     0.02   0.04   0.05
 196   6     0.01   0.01  -0.01    -0.00  -0.01   0.05     0.02   0.03   0.05
 197   7     0.01   0.01  -0.01    -0.00  -0.02   0.05     0.01   0.04   0.05
 198   6     0.02   0.00  -0.01    -0.00  -0.01   0.04     0.02   0.02   0.04
 199   6     0.01  -0.00  -0.02    -0.00  -0.00   0.03     0.02   0.02   0.04
 200   6     0.02  -0.01  -0.02    -0.01   0.00   0.02     0.02   0.01   0.03
 201   6     0.01  -0.01  -0.02    -0.00   0.01   0.01     0.02   0.00   0.03
 202   6     0.01  -0.01  -0.02    -0.00   0.01   0.01     0.01   0.01   0.03
 203   7     0.01  -0.01  -0.02    -0.00  -0.00   0.03     0.01   0.02   0.04
 204   6    -0.00  -0.01  -0.02     0.00   0.01   0.00    -0.00   0.00   0.03
 205   6    -0.01  -0.01  -0.02     0.00   0.01   0.01    -0.01   0.01   0.03
 206   6    -0.01  -0.01  -0.02     0.01   0.01   0.00    -0.02   0.00   0.03
 207   6    -0.02  -0.01  -0.02     0.01   0.00   0.01    -0.02   0.01   0.03
 208   6    -0.01  -0.00  -0.02     0.00  -0.00   0.03    -0.02   0.02   0.04
 209   7    -0.01  -0.01  -0.02     0.00   0.00   0.02    -0.01   0.02   0.04
 210   6    -0.02  -0.00  -0.01     0.00  -0.01   0.04    -0.02   0.02   0.04
 211   6    -0.01   0.00  -0.01     0.00  -0.01   0.05    -0.02   0.03   0.05
 212   7    -0.01   0.01  -0.01     0.00  -0.02   0.05    -0.01   0.04   0.05
 213   1    -0.01   0.00  -0.00     0.00  -0.01   0.02    -0.01   0.01   0.02
 214   1    -0.00   0.01   0.00     0.00  -0.01   0.02    -0.01   0.02   0.02
 215   1     0.00   0.01   0.00    -0.00  -0.01   0.02     0.01   0.02   0.02
 216   1     0.01   0.00  -0.00    -0.00  -0.01   0.02     0.01   0.01   0.02
 217   1     0.01   0.00  -0.00    -0.00  -0.00   0.01     0.01   0.01   0.01
 218   1     0.01  -0.00  -0.01    -0.00   0.00   0.01     0.01   0.00   0.01
 219   1     0.00  -0.01  -0.01    -0.00   0.00  -0.00     0.01  -0.00   0.01
 220   1    -0.00  -0.01  -0.01     0.00   0.00  -0.00    -0.01  -0.00   0.01
 221   1    -0.01  -0.00  -0.01     0.00   0.00   0.00    -0.01   0.00   0.01
 222   1    -0.01  -0.00  -0.00     0.00  -0.00   0.01    -0.01   0.01   0.01
                      4                      5                      6
                        a                      a                      a 
 Frequencies --     3.1689                 5.4678                 5.7442
 Red. masses --    17.3876                16.9552                15.8140
 Frc consts  --     0.0000                 0.0000                 0.0000
 IR Inten    --    18.8821                 2.2050                 0.6104
 Raman Activ --     0.0000                 0.0000                 0.0000
 Depolar     --     0.0000                 0.0000                 0.0000
 Atom AN      X      Y      Z        X      Y      Z        X      Y      Z
   1  26     0.00   0.10  -0.01    -0.00   0.02   0.04     0.00  -0.08   0.05
   2   6    -0.01   0.02  -0.01     0.02  -0.00  -0.02     0.06   0.04   0.03
   3   6    -0.01   0.01  -0.02     0.02  -0.01  -0.03     0.04   0.04   0.01
   4   6    -0.00   0.02  -0.01     0.01  -0.01  -0.02     0.02   0.02   0.00
   5   6     0.00   0.01  -0.02    -0.00  -0.02  -0.04     0.00   0.01  -0.02
   6   6     0.01   0.02  -0.01    -0.01  -0.02  -0.03    -0.02  -0.01  -0.02
   7   6     0.01   0.01  -0.02    -0.02  -0.02  -0.04    -0.04  -0.01  -0.04
   8   6     0.01   0.02  -0.01    -0.02  -0.02  -0.03    -0.06  -0.04  -0.03
   9   6     0.01   0.03  -0.01    -0.02  -0.01  -0.01    -0.05  -0.05  -0.01
  10   7     0.01   0.03  -0.01    -0.01  -0.01  -0.01    -0.02  -0.03  -0.01
  11   6     0.01   0.05  -0.00    -0.02   0.00   0.01    -0.06  -0.07  -0.01
  12   6     0.01   0.06   0.00    -0.02   0.02   0.03    -0.05  -0.09   0.01
  13   6     0.02   0.08   0.01    -0.02   0.03   0.05    -0.06  -0.11   0.01
  14   6     0.01   0.09   0.01    -0.02   0.04   0.07    -0.04  -0.12   0.03
  15   6     0.01   0.08   0.01    -0.01   0.04   0.06    -0.02  -0.09   0.04
  16   7     0.01   0.07   0.00    -0.01   0.02   0.04    -0.02  -0.08   0.03
  17   6     0.00   0.09   0.01    -0.00   0.05   0.07    -0.00  -0.09   0.06
  18   6    -0.01   0.08   0.01     0.01   0.04   0.06     0.02  -0.07   0.06
  19   6    -0.01   0.09   0.01     0.01   0.05   0.08     0.04  -0.06   0.08
  20   6    -0.01   0.07   0.00     0.02   0.04   0.06     0.06  -0.03   0.08
  21   6    -0.01   0.06  -0.00     0.02   0.03   0.04     0.05  -0.02   0.06
  22   7    -0.01   0.07   0.00     0.01   0.03   0.05     0.02  -0.05   0.05
  23   6    -0.01   0.05  -0.01     0.02   0.02   0.02     0.06   0.00   0.06
  24   6    -0.01   0.03  -0.01     0.02   0.01   0.00     0.05   0.01   0.04
  25   7    -0.01   0.03  -0.01     0.01   0.00  -0.00     0.02   0.00   0.02
  26   1    -0.01   0.01  -0.00     0.01  -0.00  -0.00     0.02   0.02   0.01
  27   1    -0.00  -0.00  -0.01     0.01  -0.01  -0.01     0.01   0.02   0.00
  28   1     0.00  -0.00  -0.01    -0.01  -0.01  -0.02    -0.01   0.00  -0.01
  29   1     0.01   0.01  -0.00    -0.01  -0.01  -0.01    -0.02  -0.01  -0.01
  30   1     0.01   0.01  -0.00    -0.01  -0.00   0.00    -0.02  -0.02  -0.01
  31   1     0.01   0.02   0.00    -0.01   0.01   0.01    -0.02  -0.04   0.00
  32   1     0.00   0.03   0.00    -0.01   0.01   0.02    -0.01  -0.04   0.01
  33   1     0.00   0.03   0.00    -0.00   0.02   0.03    -0.00  -0.03   0.02
  34   1    -0.00   0.03   0.00     0.00   0.02   0.03     0.01  -0.02   0.03
  35   1    -0.01   0.02   0.00     0.01   0.01   0.02     0.02  -0.01   0.03
  36   1    -0.01   0.01  -0.00     0.01   0.01   0.01     0.02   0.01   0.02
  37  26    -0.00  -0.08   0.08    -0.00   0.05  -0.01    -0.00   0.06   0.05
  38   6    -0.01  -0.01  -0.01    -0.01  -0.02   0.03    -0.06  -0.04   0.03
  39   6    -0.01   0.00  -0.02    -0.01  -0.03   0.03    -0.05  -0.04  -0.00
  40   6    -0.01  -0.00  -0.01    -0.00  -0.02   0.02    -0.02  -0.02  -0.01
  41   6    -0.00   0.00  -0.02     0.00  -0.02   0.03    -0.00  -0.01  -0.03
  42   6     0.00  -0.00  -0.01     0.01  -0.01   0.02     0.02   0.01  -0.03
  43   6     0.01   0.00  -0.02     0.01  -0.02   0.02     0.04   0.01  -0.05
  44   6     0.01  -0.01  -0.01     0.01  -0.01   0.02     0.06   0.03  -0.05
  45   6     0.01  -0.02   0.01     0.01   0.01   0.01     0.05   0.04  -0.02
  46   7     0.00  -0.02   0.01     0.01   0.00   0.01     0.02   0.03  -0.01
  47   6     0.01  -0.04   0.03     0.01   0.03  -0.00     0.06   0.06  -0.01
  48   6     0.01  -0.05   0.06     0.01   0.05  -0.02     0.05   0.07   0.01
  49   6     0.01  -0.07   0.08     0.02   0.07  -0.03     0.06   0.09   0.02
  50   6     0.01  -0.08   0.10     0.01   0.09  -0.04     0.04   0.09   0.05
  51   6     0.00  -0.07   0.09     0.00   0.07  -0.03     0.02   0.07   0.05
  52   7     0.00  -0.06   0.07     0.01   0.05  -0.02     0.02   0.06   0.03
  53   6     0.00  -0.08   0.10    -0.00   0.08  -0.04    -0.00   0.06   0.07
  54   6    -0.00  -0.07   0.09    -0.01   0.07  -0.03    -0.02   0.04   0.08
  55   6    -0.01  -0.08   0.10    -0.01   0.08  -0.03    -0.05   0.04   0.10
  56   6    -0.01  -0.07   0.08    -0.02   0.06  -0.02    -0.06   0.02   0.10
  57   6    -0.01  -0.05   0.06    -0.01   0.04  -0.01    -0.05   0.01   0.07
  58   7    -0.00  -0.06   0.07    -0.01   0.05  -0.02    -0.03   0.03   0.07
  59   6    -0.01  -0.03   0.03    -0.02   0.02   0.01    -0.06  -0.01   0.06
  60   6    -0.01  -0.02   0.01    -0.01  -0.00   0.02    -0.05  -0.02   0.04
  61   7    -0.01  -0.02   0.01    -0.01  -0.00   0.01    -0.03  -0.00   0.02
  62   1    -0.01  -0.00  -0.00    -0.01  -0.01   0.01    -0.02  -0.02   0.01
  63   1    -0.00   0.00  -0.01    -0.00  -0.01   0.01    -0.01  -0.02  -0.00
  64   1     0.00   0.00  -0.01     0.00  -0.01   0.01     0.01   0.00  -0.02
  65   1     0.00  -0.00  -0.00     0.01  -0.00   0.01     0.02   0.01  -0.02
  66   1     0.00  -0.01   0.01     0.01   0.01  -0.00     0.02   0.02  -0.01
  67   1     0.00  -0.02   0.02     0.01   0.02  -0.01     0.02   0.03   0.00
  68   1     0.00  -0.03   0.03     0.00   0.03  -0.02     0.01   0.03   0.02
  69   1     0.00  -0.03   0.03    -0.00   0.03  -0.02    -0.00   0.02   0.03
  70   1    -0.00  -0.03   0.03    -0.00   0.03  -0.01    -0.01   0.01   0.03
  71   1    -0.00  -0.02   0.02    -0.01   0.02  -0.00    -0.02   0.00   0.03
  72   1    -0.00  -0.01   0.01    -0.01   0.00   0.00    -0.02  -0.01   0.02
  73   6     0.00  -0.01  -0.02    -0.00  -0.03  -0.05     0.00   0.03  -0.03
  74   6     0.00  -0.02  -0.02    -0.00  -0.03  -0.07     0.00   0.04  -0.04
  75   6     0.00  -0.07   0.01     0.00  -0.02   0.02     0.00   0.07  -0.03
  76   6     0.00  -0.07   0.02     0.00  -0.01   0.04     0.00   0.06  -0.03
  77   6     0.00  -0.01   0.07     0.00   0.07   0.03     0.00  -0.01   0.06
  78   6     0.00  -0.00   0.06     0.00   0.07   0.01     0.00  -0.02   0.07
  79   6    -0.00   0.06  -0.04     0.00  -0.04  -0.05    -0.00  -0.05   0.00
  80   6    -0.00   0.07  -0.05     0.00  -0.05  -0.03    -0.00  -0.05  -0.01
  81   6    -0.00   0.03  -0.06     0.00  -0.05   0.03    -0.00  -0.03  -0.07
  82   6    -0.00   0.02  -0.04     0.00  -0.04   0.03    -0.00  -0.02  -0.05
  83  26     0.00  -0.13  -0.07     0.00  -0.09  -0.13     0.00   0.12  -0.10
  84   6    -0.02  -0.04  -0.04    -0.01  -0.05  -0.08     0.01   0.06  -0.02
  85   6    -0.02  -0.03  -0.03    -0.01  -0.04  -0.08     0.01   0.05  -0.03
  86   6    -0.01  -0.04  -0.03    -0.00  -0.04  -0.07     0.00   0.05  -0.04
  87   6     0.00  -0.03  -0.03    -0.00  -0.04  -0.07     0.00   0.04  -0.05
  88   6     0.01  -0.04  -0.03     0.00  -0.04  -0.08    -0.00   0.04  -0.07
  89   6     0.02  -0.03  -0.03     0.01  -0.05  -0.09    -0.01   0.03  -0.08
  90   6     0.02  -0.04  -0.04     0.01  -0.05  -0.10    -0.01   0.02  -0.09
  91   6     0.02  -0.05  -0.04     0.01  -0.05  -0.09    -0.01   0.03  -0.08
  92   7     0.01  -0.05  -0.04     0.00  -0.05  -0.08    -0.00   0.04  -0.07
  93   6     0.02  -0.06  -0.04     0.01  -0.05  -0.08    -0.01   0.04  -0.08
  94   6     0.02  -0.07  -0.03     0.01  -0.05  -0.06    -0.01   0.05  -0.07
  95   6     0.02  -0.08  -0.03     0.01  -0.05  -0.05    -0.01   0.05  -0.07
  96   6     0.02  -0.08  -0.02     0.01  -0.04  -0.03    -0.00   0.06  -0.05
  97   6     0.01  -0.07  -0.02     0.00  -0.03  -0.03    -0.00   0.06  -0.05
  98   7     0.01  -0.07  -0.03     0.00  -0.05  -0.05    -0.00   0.06  -0.06
  99   6     0.00  -0.07  -0.01     0.00  -0.03  -0.01     0.00   0.07  -0.04
 100   6    -0.01  -0.07  -0.02    -0.00  -0.03  -0.02     0.00   0.07  -0.03
 101   6    -0.02  -0.08  -0.02    -0.01  -0.03  -0.02     0.01   0.08  -0.01
 102   6    -0.02  -0.08  -0.03    -0.01  -0.04  -0.04     0.01   0.08  -0.01
 103   6    -0.02  -0.07  -0.03    -0.01  -0.04  -0.05     0.01   0.07  -0.02
 104   7    -0.01  -0.07  -0.03    -0.00  -0.04  -0.05     0.00   0.07  -0.03
 105   6    -0.02  -0.06  -0.04    -0.01  -0.05  -0.07     0.01   0.07  -0.02
 106   6    -0.02  -0.05  -0.04    -0.01  -0.05  -0.07     0.01   0.06  -0.02
 107   7    -0.01  -0.05  -0.04    -0.00  -0.05  -0.08     0.00   0.06  -0.04
 108   1    -0.01  -0.01  -0.01    -0.00  -0.01  -0.02     0.00   0.02  -0.00
 109   1    -0.01  -0.01  -0.01    -0.00  -0.01  -0.02     0.00   0.01  -0.01
 110   1     0.01  -0.01  -0.01     0.00  -0.01  -0.03    -0.00   0.01  -0.03
 111   1     0.01  -0.01  -0.01     0.00  -0.02  -0.03    -0.00   0.01  -0.03
 112   1     0.01  -0.02  -0.01     0.00  -0.02  -0.03    -0.00   0.01  -0.03
 113   1     0.01  -0.02  -0.01     0.00  -0.01  -0.02    -0.00   0.01  -0.02
 114   1     0.01  -0.02  -0.00     0.00  -0.01  -0.00    -0.00   0.02  -0.01
 115   1    -0.01  -0.02  -0.00    -0.00  -0.01  -0.00     0.00   0.02  -0.00
 116   1    -0.01  -0.02  -0.01    -0.00  -0.01  -0.01     0.00   0.02   0.00
 117   1    -0.01  -0.02  -0.01    -0.00  -0.01  -0.02     0.00   0.02  -0.00
 118  26     0.00  -0.08   0.13     0.00   0.10   0.19     0.00   0.06   0.02
 119   6     0.02  -0.05   0.06     0.03   0.03   0.10    -0.03   0.05  -0.00
 120   6     0.01  -0.06   0.04     0.02   0.01   0.08    -0.02   0.05  -0.02
 121   6     0.01  -0.06   0.04     0.01   0.02   0.07    -0.01   0.05  -0.01
 122   6     0.00  -0.06   0.04     0.00   0.01   0.06     0.00   0.05  -0.02
 123   6    -0.01  -0.06   0.04    -0.01   0.02   0.07     0.01   0.05  -0.03
 124   6    -0.01  -0.06   0.04    -0.02   0.01   0.08     0.02   0.05  -0.04
 125   6    -0.02  -0.05   0.06    -0.03   0.02   0.10     0.03   0.04  -0.04
 126   6    -0.01  -0.04   0.06    -0.02   0.04   0.10     0.03   0.03  -0.02
 127   7    -0.01  -0.05   0.06    -0.01   0.03   0.09     0.01   0.04  -0.01
 128   6    -0.02  -0.04   0.07    -0.03   0.05   0.11     0.03   0.02  -0.01
 129   6    -0.01  -0.03   0.07    -0.02   0.06   0.10     0.03   0.02   0.01
 130   6    -0.02  -0.02   0.07    -0.03   0.07   0.10     0.03   0.01   0.03
 131   6    -0.01  -0.02   0.07    -0.02   0.07   0.08     0.03  -0.00   0.04
 132   6    -0.01  -0.02   0.07    -0.01   0.07   0.07     0.01   0.00   0.04
 133   7    -0.01  -0.03   0.07    -0.01   0.06   0.09     0.01   0.02   0.02
 134   6     0.00  -0.02   0.07     0.00   0.07   0.06     0.00   0.00   0.05
 135   6     0.01  -0.02   0.07     0.01   0.07   0.07    -0.01   0.01   0.05
 136   6     0.01  -0.02   0.07     0.02   0.07   0.08    -0.03   0.00   0.05
 137   6     0.02  -0.02   0.08     0.03   0.07   0.10    -0.03   0.01   0.05
 138   6     0.01  -0.03   0.07     0.02   0.06   0.10    -0.03   0.02   0.03
 139   7     0.01  -0.03   0.07     0.01   0.06   0.09    -0.01   0.02   0.03
 140   6     0.02  -0.04   0.07     0.03   0.05   0.11    -0.03   0.03   0.02
 141   6     0.01  -0.04   0.06     0.02   0.04   0.10    -0.02   0.04   0.01
 142   7     0.01  -0.05   0.06     0.01   0.03   0.09    -0.01   0.04  -0.00
 143   1     0.01  -0.02   0.02     0.01   0.01   0.03    -0.01   0.01  -0.00
 144   1     0.00  -0.02   0.01     0.01   0.00   0.02    -0.01   0.02  -0.01
 145   1    -0.00  -0.02   0.01    -0.01   0.00   0.02     0.01   0.02  -0.02
 146   1    -0.01  -0.02   0.02    -0.01   0.01   0.03     0.01   0.01  -0.01
 147   1    -0.01  -0.01   0.02    -0.01   0.02   0.03     0.01   0.01  -0.00
 148   1    -0.01  -0.01   0.02    -0.01   0.02   0.03     0.01   0.00   0.01
 149   1    -0.00  -0.00   0.02    -0.01   0.02   0.02     0.01  -0.00   0.02
 150   1     0.00  -0.00   0.02     0.01   0.02   0.02    -0.01  -0.00   0.02
 151   1     0.01  -0.01   0.02     0.01   0.02   0.03    -0.01   0.00   0.01
 152   1     0.01  -0.01   0.02     0.01   0.02   0.03    -0.01   0.01   0.01
 153  26    -0.00   0.06   0.05     0.00   0.05  -0.14    -0.00  -0.09   0.13
 154   6     0.02   0.01   0.05    -0.04   0.05  -0.06    -0.01  -0.03   0.08
 155   6     0.01   0.00   0.06    -0.03   0.06  -0.04    -0.01  -0.03   0.08
 156   6     0.01   0.01   0.05    -0.01   0.05  -0.03    -0.00  -0.03   0.08
 157   6     0.00   0.01   0.05     0.00   0.06  -0.02     0.00  -0.03   0.08
 158   6    -0.01   0.01   0.05     0.02   0.05  -0.03     0.00  -0.03   0.08
 159   6    -0.01   0.01   0.06     0.03   0.06  -0.03     0.01  -0.03   0.09
 160   6    -0.02   0.01   0.05     0.04   0.05  -0.06     0.01  -0.03   0.09
 161   6    -0.01   0.02   0.04     0.03   0.04  -0.07     0.01  -0.04   0.09
 162   7    -0.01   0.02   0.04     0.02   0.04  -0.06     0.01  -0.04   0.08
 163   6    -0.02   0.03   0.03     0.04   0.02  -0.08     0.01  -0.04   0.08
 164   6    -0.02   0.04   0.01     0.03   0.01  -0.08     0.01  -0.04   0.07
 165   6    -0.02   0.04   0.00     0.04  -0.01  -0.08     0.01  -0.05   0.06
 166   6    -0.02   0.05  -0.01     0.03  -0.02  -0.07     0.01  -0.05   0.04
 167   6    -0.01   0.05  -0.01     0.01  -0.01  -0.07     0.00  -0.05   0.04
 168   7    -0.01   0.04   0.01     0.02   0.00  -0.08     0.00  -0.05   0.06
 169   6    -0.00   0.05  -0.02     0.00  -0.02  -0.06    -0.00  -0.05   0.02
 170   6     0.01   0.05  -0.01    -0.01  -0.01  -0.07    -0.00  -0.05   0.02
 171   6     0.02   0.05  -0.01    -0.03  -0.02  -0.08    -0.01  -0.05   0.01
 172   6     0.02   0.04   0.00    -0.04  -0.01  -0.09    -0.01  -0.04   0.03
 173   6     0.02   0.04   0.02    -0.03   0.01  -0.09    -0.01  -0.04   0.05
 174   7     0.01   0.04   0.01    -0.02   0.01  -0.08    -0.00  -0.05   0.05
 175   6     0.02   0.03   0.03    -0.04   0.02  -0.09    -0.01  -0.04   0.06
 176   6     0.01   0.02   0.04    -0.03   0.04  -0.07    -0.01  -0.04   0.07
 177   7     0.01   0.02   0.04    -0.02   0.04  -0.06    -0.01  -0.04   0.08
 178   1     0.01   0.00   0.02    -0.02   0.02  -0.02    -0.00  -0.01   0.02
 179   1     0.00  -0.00   0.02    -0.01   0.02  -0.01    -0.00  -0.01   0.03
 180   1    -0.00  -0.00   0.02     0.01   0.02  -0.01     0.00  -0.01   0.03
 181   1    -0.01   0.00   0.02     0.02   0.02  -0.02     0.00  -0.01   0.03
 182   1    -0.01   0.01   0.01     0.02   0.01  -0.03     0.00  -0.01   0.03
 183   1    -0.01   0.01   0.00     0.02  -0.00  -0.03     0.00  -0.01   0.02
 184   1    -0.01   0.02  -0.01     0.01  -0.01  -0.02     0.00  -0.01   0.01
 185   1     0.00   0.02  -0.01    -0.01  -0.01  -0.02    -0.00  -0.01  -0.00
 186   1     0.01   0.01   0.00    -0.02  -0.00  -0.03    -0.00  -0.01   0.01
 187   1     0.01   0.01   0.01    -0.01   0.01  -0.03    -0.00  -0.01   0.02
 188  26    -0.00   0.13  -0.19     0.00  -0.13   0.05    -0.00  -0.06  -0.15
 189   6    -0.01   0.07  -0.09     0.01  -0.06   0.01    -0.00  -0.02  -0.08
 190   6    -0.01   0.07  -0.08     0.01  -0.06  -0.01    -0.00  -0.03  -0.06
 191   6    -0.01   0.07  -0.08     0.00  -0.06  -0.00    -0.00  -0.04  -0.05
 192   6    -0.00   0.07  -0.07     0.00  -0.05  -0.01    -0.00  -0.04  -0.03
 193   6     0.00   0.07  -0.08    -0.00  -0.06   0.00     0.00  -0.04  -0.03
 194   6     0.01   0.07  -0.08    -0.01  -0.06   0.00     0.00  -0.05  -0.01
 195   6     0.01   0.07  -0.09    -0.01  -0.06   0.02     0.00  -0.05  -0.02
 196   6     0.01   0.07  -0.09    -0.01  -0.06   0.03    -0.00  -0.04  -0.04
 197   7     0.01   0.07  -0.09    -0.00  -0.06   0.02    -0.00  -0.04  -0.05
 198   6     0.01   0.06  -0.10    -0.01  -0.07   0.04    -0.00  -0.04  -0.04
 199   6     0.01   0.06  -0.09    -0.01  -0.06   0.04    -0.00  -0.03  -0.05
 200   6     0.01   0.05  -0.09    -0.01  -0.06   0.05    -0.00  -0.03  -0.05
 201   6     0.01   0.04  -0.08    -0.01  -0.06   0.05    -0.00  -0.03  -0.06
 202   6     0.00   0.04  -0.08    -0.00  -0.06   0.04    -0.00  -0.03  -0.07
 203   7     0.01   0.06  -0.09    -0.00  -0.06   0.04    -0.00  -0.03  -0.07
 204   6    -0.00   0.04  -0.07     0.00  -0.05   0.04    -0.00  -0.03  -0.08
 205   6    -0.01   0.04  -0.08     0.00  -0.05   0.03    -0.00  -0.02  -0.09
 206   6    -0.01   0.04  -0.08     0.01  -0.05   0.04     0.00  -0.01  -0.12
 207   6    -0.02   0.05  -0.09     0.01  -0.06   0.04     0.00  -0.01  -0.13
 208   6    -0.01   0.06  -0.09     0.01  -0.06   0.03     0.00  -0.01  -0.11
 209   7    -0.01   0.06  -0.09     0.00  -0.06   0.03    -0.00  -0.02  -0.10
 210   6    -0.01   0.06  -0.10     0.01  -0.06   0.03    -0.00  -0.01  -0.11
 211   6    -0.01   0.07  -0.09     0.01  -0.06   0.02    -0.00  -0.02  -0.09
 212   7    -0.01   0.07  -0.09     0.00  -0.06   0.01    -0.00  -0.03  -0.07
 213   1    -0.01   0.02  -0.03     0.00  -0.02   0.00    -0.00  -0.00  -0.03
 214   1    -0.00   0.02  -0.02     0.00  -0.02  -0.01    -0.00  -0.01  -0.01
 215   1     0.00   0.02  -0.02    -0.00  -0.02  -0.00     0.00  -0.02  -0.00
 216   1     0.01   0.02  -0.03    -0.00  -0.02   0.01     0.00  -0.01  -0.00
 217   1     0.01   0.02  -0.03    -0.00  -0.02   0.01    -0.00  -0.01  -0.01
 218   1     0.01   0.02  -0.03    -0.00  -0.02   0.02    -0.00  -0.01  -0.01
 219   1     0.00   0.01  -0.02    -0.00  -0.02   0.01    -0.00  -0.01  -0.02
 220   1    -0.00   0.01  -0.02     0.00  -0.01   0.01     0.00  -0.00  -0.04
 221   1    -0.01   0.01  -0.03     0.00  -0.02   0.01     0.00  -0.00  -0.04
 222   1    -0.01   0.02  -0.03     0.00  -0.02   0.01    -0.00  -0.00  -0.04
                      7                      8                      9
                        a                      a                      a 
 Frequencies --     5.8340                 8.1496                 9.4405
 Red. masses --    11.7844                11.2107                14.5618
 Frc consts  --     0.0000                 0.0000                 0.0000
 IR Inten    --    37.8709               990.1331                 1.4053
 Raman Activ --     0.0000                 0.0000                 0.0000
 Depolar     --     0.0000                 0.0000                 0.0000
 Atom AN      X      Y      Z        X      Y      Z        X      Y      Z
   1  26    -0.00  -0.02   0.02    -0.00  -0.00   0.00    -0.00  -0.03   0.02
   2   6     0.02  -0.12  -0.10     0.00   0.09   0.07     0.06   0.05   0.00
   3   6     0.02  -0.08  -0.08     0.00   0.06   0.05     0.05   0.07  -0.01
   4   6     0.01  -0.04  -0.04     0.00   0.03   0.02     0.02   0.05  -0.01
   5   6    -0.00   0.00  -0.01    -0.00   0.00   0.00    -0.00   0.06  -0.02
   6   6    -0.01   0.04   0.03    -0.00  -0.03  -0.02    -0.03   0.06  -0.01
   7   6    -0.02   0.09   0.06    -0.00  -0.06  -0.05    -0.05   0.08  -0.01
   8   6    -0.02   0.12   0.10    -0.00  -0.09  -0.07    -0.07   0.06   0.01
   9   6    -0.02   0.09   0.08    -0.00  -0.07  -0.06    -0.05   0.03   0.01
  10   7    -0.01   0.05   0.04    -0.00  -0.04  -0.03    -0.03   0.03   0.00
  11   6    -0.02   0.11   0.11    -0.00  -0.09  -0.08    -0.07  -0.00   0.02
  12   6    -0.02   0.08   0.09    -0.00  -0.08  -0.07    -0.06  -0.04   0.02
  13   6    -0.02   0.10   0.12    -0.00  -0.11  -0.09    -0.07  -0.07   0.02
  14   6    -0.02   0.06   0.10    -0.00  -0.08  -0.06    -0.05  -0.11   0.02
  15   6    -0.01   0.02   0.06    -0.00  -0.04  -0.03    -0.03  -0.09   0.01
  16   7    -0.01   0.03   0.06    -0.00  -0.05  -0.04    -0.03  -0.06   0.01
  17   6    -0.00  -0.03   0.02    -0.00  -0.01   0.00    -0.00  -0.12   0.01
  18   6     0.01  -0.07  -0.02    -0.00   0.03   0.03     0.02  -0.09   0.01
  19   6     0.02  -0.12  -0.05     0.00   0.07   0.07     0.05  -0.11   0.02
  20   6     0.02  -0.15  -0.08     0.00   0.10   0.09     0.07  -0.08   0.02
  21   6     0.02  -0.11  -0.06     0.00   0.08   0.07     0.05  -0.04   0.02
  22   7     0.01  -0.07  -0.03    -0.00   0.04   0.04     0.03  -0.06   0.01
  23   6     0.02  -0.13  -0.09     0.00   0.09   0.08     0.06  -0.01   0.01
  24   6     0.02  -0.10  -0.07     0.00   0.07   0.06     0.05   0.02   0.01
  25   7     0.01  -0.05  -0.04     0.00   0.04   0.03     0.03   0.03   0.00
  26   1     0.01  -0.04  -0.04     0.00   0.03   0.03     0.02   0.02   0.00
  27   1     0.00  -0.02  -0.02     0.00   0.02   0.01     0.01   0.03  -0.00
  28   1    -0.01   0.03   0.02    -0.00  -0.02  -0.01    -0.02   0.03  -0.00
  29   1    -0.01   0.05   0.04    -0.00  -0.03  -0.03    -0.03   0.02   0.00
  30   1    -0.01   0.04   0.04    -0.00  -0.04  -0.03    -0.03   0.00   0.01
  31   1    -0.01   0.04   0.05    -0.00  -0.04  -0.03    -0.03  -0.02   0.01
  32   1    -0.01   0.02   0.03    -0.00  -0.03  -0.02    -0.02  -0.04   0.01
  33   1    -0.00  -0.01   0.01    -0.00  -0.00   0.00    -0.00  -0.04   0.00
  34   1     0.00  -0.04  -0.02     0.00   0.02   0.02     0.01  -0.04   0.01
  35   1     0.01  -0.05  -0.03     0.00   0.04   0.03     0.03  -0.02   0.01
  36   1     0.01  -0.05  -0.03     0.00   0.04   0.03     0.02  -0.00   0.01
  37  26     0.00   0.02   0.02     0.00   0.00   0.00     0.00  -0.02  -0.02
  38   6    -0.02   0.09  -0.09    -0.00   0.10  -0.10     0.07   0.08  -0.02
  39   6    -0.02   0.06  -0.07     0.00   0.07  -0.07     0.05   0.10  -0.01
  40   6    -0.01   0.03  -0.04     0.00   0.03  -0.03     0.03   0.07  -0.01
  41   6     0.00  -0.00  -0.01     0.00   0.00   0.00     0.00   0.09   0.00
  42   6     0.01  -0.04   0.03     0.00  -0.03   0.04    -0.02   0.07  -0.01
  43   6     0.02  -0.08   0.06     0.00  -0.07   0.07    -0.05   0.10  -0.02
  44   6     0.02  -0.10   0.10     0.00  -0.10   0.10    -0.07   0.08  -0.03
  45   6     0.02  -0.07   0.08     0.00  -0.08   0.09    -0.06   0.04  -0.02
  46   7     0.01  -0.04   0.04     0.00  -0.04   0.05    -0.03   0.04  -0.02
  47   6     0.02  -0.08   0.10     0.00  -0.10   0.11    -0.07   0.01  -0.03
  48   6     0.02  -0.06   0.09     0.00  -0.09   0.10    -0.06  -0.04  -0.02
  49   6     0.02  -0.07   0.12     0.00  -0.11   0.13    -0.07  -0.08  -0.01
  50   6     0.02  -0.04   0.09     0.00  -0.09   0.09    -0.05  -0.13   0.00
  51   6     0.01  -0.01   0.05     0.00  -0.04   0.05    -0.02  -0.11   0.00
  52   7     0.01  -0.02   0.06     0.00  -0.05   0.05    -0.03  -0.06  -0.01
  53   6     0.00   0.03   0.02     0.00   0.00   0.00     0.00  -0.14   0.01
  54   6    -0.01   0.06  -0.02    -0.00   0.04  -0.04     0.03  -0.11   0.01
  55   6    -0.02   0.10  -0.05    -0.00   0.09  -0.09     0.06  -0.13   0.01
  56   6    -0.02   0.12  -0.08    -0.00   0.12  -0.12     0.08  -0.09  -0.00
  57   6    -0.02   0.09  -0.06    -0.00   0.09  -0.09     0.06  -0.04  -0.01
  58   7    -0.01   0.06  -0.03    -0.00   0.05  -0.05     0.03  -0.06  -0.00
  59   6    -0.02   0.10  -0.08    -0.00   0.10  -0.11     0.07   0.00  -0.02
  60   6    -0.02   0.08  -0.07    -0.00   0.08  -0.08     0.06   0.04  -0.02
  61   7    -0.01   0.04  -0.04     0.00   0.04  -0.04     0.03   0.04  -0.01
  62   1    -0.01   0.04  -0.04    -0.00   0.04  -0.04     0.03   0.02  -0.01
  63   1    -0.00   0.02  -0.02     0.00   0.02  -0.02     0.02   0.04  -0.00
  64   1     0.01  -0.02   0.02     0.00  -0.02   0.02    -0.02   0.04  -0.00
  65   1     0.01  -0.04   0.04     0.00  -0.04   0.04    -0.03   0.03  -0.01
  66   1     0.01  -0.03   0.04     0.00  -0.04   0.04    -0.03   0.00  -0.01
  67   1     0.01  -0.03   0.04     0.00  -0.04   0.05    -0.03  -0.02  -0.00
  68   1     0.01  -0.01   0.03     0.00  -0.03   0.03    -0.02  -0.05   0.00
  69   1     0.00   0.01   0.01     0.00   0.00  -0.00     0.00  -0.05   0.01
  70   1    -0.00   0.03  -0.02    -0.00   0.03  -0.03     0.02  -0.05   0.00
  71   1    -0.01   0.04  -0.03    -0.00   0.04  -0.05     0.03  -0.02  -0.00
  72   1    -0.01   0.04  -0.03    -0.00   0.04  -0.04     0.03   0.00  -0.01
  73   6    -0.00   0.01  -0.01    -0.00   0.00  -0.00    -0.00   0.08  -0.03
  74   6    -0.00   0.01  -0.02    -0.00   0.00  -0.00    -0.00   0.08  -0.05
  75   6    -0.00   0.02  -0.01    -0.00   0.00  -0.00    -0.00   0.02   0.03
  76   6    -0.00   0.02  -0.01    -0.00   0.00   0.00    -0.00   0.01   0.04
  77   6     0.00  -0.00   0.02    -0.00  -0.00   0.00     0.00  -0.07   0.01
  78   6     0.00  -0.00   0.03    -0.00  -0.00   0.00     0.00  -0.07   0.00
  79   6     0.00  -0.02  -0.00     0.00  -0.00  -0.00     0.00  -0.02  -0.04
  80   6     0.00  -0.02  -0.01     0.00  -0.00  -0.00     0.00  -0.01  -0.02
  81   6     0.00  -0.01  -0.02     0.00   0.00  -0.00     0.00   0.10   0.03
  82   6     0.00  -0.01  -0.01     0.00   0.00   0.00     0.00   0.10   0.02
  83  26    -0.00   0.03  -0.05    -0.00   0.01  -0.00    -0.00   0.10  -0.07
  84   6     0.00  -0.04  -0.13    -0.00   0.01   0.01    -0.03   0.06  -0.06
  85   6     0.00  -0.02  -0.11    -0.00   0.01   0.02    -0.02   0.07  -0.06
  86   6     0.00  -0.00  -0.06    -0.00   0.01   0.01    -0.01   0.06  -0.05
  87   6    -0.00   0.01  -0.02    -0.00   0.00  -0.00    -0.00   0.07  -0.05
  88   6    -0.00   0.03   0.02    -0.00  -0.00  -0.01     0.01   0.06  -0.05
  89   6    -0.00   0.05   0.06    -0.00  -0.01  -0.02     0.02   0.07  -0.07
  90   6    -0.00   0.06   0.08    -0.00  -0.01  -0.02     0.03   0.05  -0.07
  91   6    -0.00   0.05   0.06    -0.00   0.00  -0.01     0.02   0.05  -0.05
  92   7    -0.00   0.03   0.02    -0.00   0.00  -0.01     0.01   0.06  -0.05
  93   6    -0.00   0.06   0.07    -0.00   0.00   0.00     0.03   0.04  -0.05
  94   6    -0.00   0.05   0.05     0.00   0.01   0.01     0.03   0.03  -0.03
  95   6    -0.00   0.06   0.07     0.00   0.02   0.02     0.03   0.02  -0.02
  96   6    -0.00   0.05   0.04     0.00   0.02   0.02     0.02   0.02   0.00
  97   6    -0.00   0.04   0.01     0.00   0.01   0.01     0.01   0.03  -0.00
  98   7    -0.00   0.04   0.02    -0.00   0.01   0.01     0.01   0.04  -0.02
  99   6    -0.00   0.02  -0.01    -0.00   0.00  -0.00    -0.00   0.03   0.01
 100   6    -0.00   0.01  -0.04     0.00  -0.00  -0.01    -0.01   0.03   0.00
 101   6    -0.00  -0.01  -0.07     0.00  -0.01  -0.02    -0.03   0.02   0.01
 102   6    -0.00  -0.03  -0.10     0.00  -0.01  -0.02    -0.03   0.03  -0.01
 103   6     0.00  -0.02  -0.09     0.00  -0.00  -0.01    -0.03   0.03  -0.02
 104   7    -0.00   0.00  -0.06    -0.00  -0.00  -0.01    -0.02   0.04  -0.02
 105   6     0.00  -0.03  -0.11    -0.00   0.00  -0.00    -0.03   0.04  -0.04
 106   6     0.00  -0.02  -0.10    -0.00   0.00   0.00    -0.03   0.05  -0.05
 107   7     0.00  -0.00  -0.07    -0.00   0.00   0.00    -0.01   0.06  -0.05
 108   1     0.00  -0.01  -0.05    -0.00   0.00   0.01    -0.01   0.02  -0.02
 109   1     0.00  -0.01  -0.03    -0.00   0.00   0.01    -0.01   0.02  -0.02
 110   1    -0.00   0.01   0.02    -0.00  -0.00  -0.01     0.01   0.02  -0.02
 111   1    -0.00   0.02   0.03    -0.00  -0.00  -0.01     0.01   0.01  -0.02
 112   1    -0.00   0.02   0.03    -0.00   0.00   0.00     0.01   0.01  -0.01
 113   1    -0.00   0.02   0.03     0.00   0.01   0.01     0.01   0.01  -0.01
 114   1    -0.00   0.02   0.01     0.00   0.01   0.01     0.01   0.01   0.00
 115   1    -0.00  -0.00  -0.02     0.00  -0.00  -0.01    -0.01   0.01   0.01
 116   1    -0.00  -0.01  -0.04     0.00  -0.00  -0.01    -0.01   0.01  -0.00
 117   1     0.00  -0.01  -0.04    -0.00  -0.00  -0.00    -0.01   0.01  -0.01
 118  26     0.00   0.03   0.02    -0.00   0.00   0.00    -0.00  -0.06   0.12
 119   6    -0.01   0.01  -0.04    -0.00  -0.02  -0.12    -0.02  -0.01   0.07
 120   6    -0.01   0.01  -0.04    -0.00  -0.01  -0.09    -0.02  -0.00   0.06
 121   6    -0.00   0.02  -0.02    -0.00  -0.00  -0.04    -0.01  -0.01   0.06
 122   6    -0.00   0.02  -0.00    -0.00   0.00   0.00    -0.00  -0.00   0.05
 123   6     0.00   0.02   0.01    -0.00   0.01   0.04     0.01  -0.01   0.06
 124   6     0.01   0.02   0.03    -0.00   0.01   0.09     0.02  -0.00   0.06
 125   6     0.01   0.02   0.04    -0.00   0.02   0.12     0.02  -0.01   0.07
 126   6     0.01   0.02   0.03    -0.00   0.02   0.10     0.02  -0.02   0.07
 127   7     0.00   0.02   0.02    -0.00   0.01   0.05     0.01  -0.02   0.07
 128   6     0.01   0.02   0.04     0.00   0.03   0.13     0.02  -0.02   0.07
 129   6     0.01   0.01   0.03     0.00   0.02   0.11     0.02  -0.03   0.05
 130   6     0.01   0.01   0.04     0.00   0.03   0.14     0.02  -0.04   0.05
 131   6     0.01   0.01   0.03     0.00   0.03   0.11     0.01  -0.05   0.03
 132   6     0.00   0.01   0.03     0.00   0.01   0.05     0.01  -0.05   0.03
 133   7     0.00   0.01   0.03    -0.00   0.01   0.06     0.01  -0.04   0.05
 134   6     0.00   0.00   0.02    -0.00  -0.00   0.00     0.00  -0.06   0.02
 135   6    -0.00   0.00   0.01    -0.00  -0.01  -0.05    -0.01  -0.05   0.03
 136   6    -0.01   0.00   0.01    -0.00  -0.03  -0.10    -0.01  -0.05   0.03
 137   6    -0.01   0.00   0.00    -0.00  -0.04  -0.14    -0.02  -0.04   0.04
 138   6    -0.01   0.01  -0.00    -0.00  -0.02  -0.11    -0.02  -0.03   0.05
 139   7    -0.00   0.01   0.01    -0.00  -0.01  -0.06    -0.01  -0.04   0.05
 140   6    -0.01   0.01  -0.02    -0.00  -0.03  -0.13    -0.02  -0.02   0.07
 141   6    -0.01   0.01  -0.02    -0.00  -0.02  -0.10    -0.02  -0.02   0.07
 142   7    -0.00   0.01  -0.01    -0.00  -0.01  -0.05    -0.01  -0.02   0.06
 143   1    -0.00   0.00  -0.02    -0.00  -0.01  -0.05    -0.01  -0.00   0.02
 144   1    -0.00   0.00  -0.01    -0.00  -0.00  -0.03    -0.01   0.00   0.02
 145   1     0.00   0.01   0.01    -0.00   0.00   0.03     0.00   0.00   0.02
 146   1     0.00   0.01   0.01     0.00   0.01   0.05     0.01  -0.00   0.02
 147   1     0.00   0.01   0.01     0.00   0.01   0.05     0.01  -0.01   0.02
 148   1     0.00   0.00   0.01     0.00   0.01   0.05     0.01  -0.01   0.01
 149   1     0.00   0.00   0.01     0.00   0.01   0.03     0.00  -0.02   0.01
 150   1    -0.00  -0.00   0.00    -0.00  -0.01  -0.03    -0.00  -0.02   0.00
 151   1    -0.00   0.00  -0.00    -0.00  -0.01  -0.05    -0.01  -0.01   0.01
 152   1    -0.00   0.00  -0.01    -0.00  -0.01  -0.05    -0.01  -0.01   0.02
 153  26     0.00  -0.03   0.04    -0.00  -0.00  -0.00     0.00  -0.09  -0.11
 154   6    -0.01  -0.01   0.06    -0.00   0.02  -0.15     0.01  -0.06  -0.03
 155   6    -0.00  -0.01   0.05    -0.00   0.01  -0.11     0.01  -0.06  -0.02
 156   6    -0.00  -0.01   0.04    -0.00   0.01  -0.05     0.00  -0.06  -0.02
 157   6     0.00  -0.01   0.03    -0.00  -0.00   0.00     0.00  -0.06  -0.01
 158   6     0.00  -0.01   0.01    -0.00  -0.01   0.05    -0.00  -0.06  -0.02
 159   6     0.01  -0.00   0.00     0.00  -0.02   0.11    -0.01  -0.06  -0.02
 160   6     0.01  -0.00  -0.01     0.00  -0.02   0.15    -0.01  -0.05  -0.04
 161   6     0.01  -0.01  -0.01    -0.00  -0.02   0.11    -0.01  -0.05  -0.05
 162   7     0.00  -0.01   0.01    -0.00  -0.01   0.06    -0.01  -0.05  -0.04
 163   6     0.01  -0.01  -0.03    -0.00  -0.02   0.13    -0.01  -0.04  -0.06
 164   6     0.00  -0.01  -0.03    -0.00  -0.01   0.10    -0.01  -0.04  -0.07
 165   6     0.00  -0.01  -0.05    -0.00  -0.01   0.13    -0.02  -0.03  -0.07
 166   6     0.00  -0.02  -0.04    -0.00  -0.01   0.09    -0.01  -0.03  -0.06
 167   6     0.00  -0.02  -0.02    -0.00  -0.00   0.04    -0.01  -0.03  -0.06
 168   7     0.00  -0.02  -0.01    -0.00  -0.01   0.06    -0.01  -0.04  -0.06
 169   6     0.00  -0.02   0.00     0.00  -0.00  -0.00     0.00  -0.03  -0.05
 170   6    -0.00  -0.02   0.03    -0.00   0.00  -0.04     0.01  -0.03  -0.06
 171   6    -0.00  -0.02   0.05    -0.00   0.00  -0.09     0.01  -0.03  -0.06
 172   6    -0.01  -0.02   0.07    -0.00   0.01  -0.13     0.02  -0.03  -0.07
 173   6    -0.00  -0.02   0.06    -0.00   0.01  -0.10     0.01  -0.04  -0.06
 174   7    -0.00  -0.02   0.04    -0.00   0.00  -0.06     0.01  -0.04  -0.06
 175   6    -0.01  -0.02   0.06    -0.00   0.01  -0.13     0.01  -0.04  -0.06
 176   6    -0.00  -0.01   0.05    -0.00   0.01  -0.11     0.01  -0.05  -0.05
 177   7    -0.00  -0.01   0.04    -0.00   0.00  -0.06     0.01  -0.05  -0.04
 178   1    -0.00  -0.00   0.02    -0.00   0.01  -0.06     0.01  -0.02  -0.01
 179   1    -0.00  -0.00   0.01     0.00   0.01  -0.03     0.00  -0.02  -0.00
 180   1     0.00  -0.00   0.00     0.00  -0.01   0.03    -0.00  -0.02  -0.00
 181   1     0.00  -0.00  -0.01     0.00  -0.01   0.06    -0.01  -0.02  -0.01
 182   1     0.00  -0.00  -0.01    -0.00  -0.01   0.05    -0.01  -0.01  -0.02
 183   1     0.00  -0.00  -0.02    -0.00  -0.00   0.05    -0.01  -0.01  -0.02
 184   1     0.00  -0.01  -0.02    -0.00  -0.00   0.03    -0.00  -0.01  -0.02
 185   1    -0.00  -0.01   0.01    -0.00   0.00  -0.03     0.00  -0.01  -0.02
 186   1    -0.00  -0.01   0.02    -0.00   0.00  -0.05     0.01  -0.01  -0.02
 187   1    -0.00  -0.01   0.02    -0.00   0.00  -0.05     0.01  -0.01  -0.02
 188  26     0.00  -0.03  -0.05     0.00   0.00  -0.01     0.00   0.09   0.07
 189   6     0.00  -0.06   0.08     0.00   0.01  -0.02     0.05   0.01   0.02
 190   6     0.00  -0.05   0.05     0.00   0.01  -0.03     0.03   0.01   0.00
 191   6     0.00  -0.03   0.02     0.00   0.01  -0.01     0.02   0.01   0.00
 192   6     0.00  -0.02  -0.01     0.00  -0.00  -0.00     0.00   0.01  -0.01
 193   6     0.00  -0.00  -0.05     0.00  -0.00   0.01    -0.02   0.01   0.00
 194   6     0.00   0.01  -0.08     0.00  -0.01   0.02    -0.03   0.01   0.00
 195   6     0.00   0.02  -0.11     0.00  -0.01   0.02    -0.04   0.01   0.02
 196   6     0.00   0.02  -0.10     0.00  -0.00   0.01    -0.03   0.03   0.03
 197   7     0.00  -0.00  -0.06     0.00  -0.00   0.00    -0.02   0.03   0.02
 198   6    -0.00   0.03  -0.12     0.00   0.00  -0.00    -0.04   0.04   0.04
 199   6    -0.00   0.02  -0.11    -0.00   0.00  -0.01    -0.03   0.05   0.05
 200   6    -0.00   0.03  -0.14    -0.00   0.01  -0.03    -0.04   0.07   0.06
 201   6    -0.00   0.02  -0.11    -0.00   0.01  -0.03    -0.03   0.08   0.05
 202   6     0.00   0.00  -0.06     0.00   0.00  -0.01    -0.01   0.08   0.04
 203   7    -0.00   0.00  -0.07     0.00   0.00  -0.01    -0.02   0.06   0.04
 204   6     0.00  -0.01  -0.02     0.00   0.00  -0.00     0.00   0.09   0.04
 205   6     0.00  -0.03   0.02     0.00  -0.00   0.01     0.02   0.08   0.04
 206   6     0.00  -0.04   0.06    -0.00  -0.01   0.02     0.03   0.08   0.05
 207   6     0.00  -0.05   0.08    -0.00  -0.01   0.02     0.04   0.07   0.06
 208   6     0.00  -0.04   0.06     0.00  -0.00   0.01     0.03   0.05   0.05
 209   7     0.00  -0.03   0.02     0.00  -0.00   0.00     0.02   0.06   0.04
 210   6     0.00  -0.05   0.07     0.00   0.00  -0.00     0.04   0.04   0.04
 211   6     0.00  -0.05   0.06     0.00   0.01  -0.01     0.04   0.03   0.03
 212   7     0.00  -0.03   0.02     0.00   0.00  -0.01     0.02   0.03   0.02
 213   1     0.00  -0.02   0.03     0.00   0.00  -0.01     0.02   0.00   0.01
 214   1     0.00  -0.02   0.02     0.00   0.00  -0.01     0.01  -0.00  -0.00
 215   1     0.00   0.00  -0.02     0.00  -0.00   0.01    -0.01  -0.00  -0.00
 216   1     0.00   0.01  -0.04     0.00  -0.00   0.01    -0.02   0.00   0.01
 217   1    -0.00   0.01  -0.05    -0.00   0.00  -0.00    -0.02   0.01   0.01
 218   1    -0.00   0.01  -0.05    -0.00   0.00  -0.01    -0.02   0.02   0.02
 219   1    -0.00   0.01  -0.03    -0.00   0.00  -0.01    -0.01   0.03   0.02
 220   1     0.00  -0.01   0.02    -0.00  -0.00   0.01     0.01   0.03   0.02
 221   1     0.00  -0.02   0.03    -0.00  -0.00   0.01     0.02   0.02   0.02
 222   1     0.00  -0.02   0.03     0.00   0.00  -0.00     0.02   0.01   0.01
                     10                     11                     12
                        a                      a                      a 
 Frequencies --    10.6985                10.8267                12.5015
 Red. masses --    12.1171                11.2125                12.1927
 Frc consts  --     0.0000                 0.0000                 0.0000
 IR Inten    --    28.9696              1278.7603                20.4750
 Raman Activ --     0.0000                 0.0000                 0.0000
 Depolar     --     0.0000                 0.0000                 0.0000
 Atom AN      X      Y      Z        X      Y      Z        X      Y      Z
   1  26     0.01   0.00   0.01    -0.00   0.00   0.00    -0.00  -0.02  -0.01
   2   6     0.01   0.11   0.08    -0.00   0.08   0.07     0.03  -0.04  -0.06
   3   6     0.01   0.13   0.09    -0.00   0.06   0.05     0.02  -0.04  -0.08
   4   6     0.01   0.10   0.07    -0.00   0.03   0.03     0.01  -0.03  -0.06
   5   6     0.00   0.11   0.08    -0.00   0.01   0.01    -0.00  -0.03  -0.07
   6   6    -0.00   0.10   0.08    -0.00  -0.01  -0.01    -0.01  -0.03  -0.06
   7   6    -0.01   0.14   0.10     0.00  -0.03  -0.02    -0.03  -0.04  -0.08
   8   6    -0.01   0.12   0.09     0.00  -0.06  -0.05    -0.04  -0.04  -0.06
   9   6    -0.01   0.07   0.06     0.00  -0.06  -0.04    -0.03  -0.03  -0.04
  10   7    -0.00   0.07   0.05    -0.00  -0.03  -0.02    -0.02  -0.03  -0.04
  11   6    -0.01   0.03   0.03     0.00  -0.08  -0.07    -0.04  -0.02  -0.01
  12   6    -0.01  -0.03  -0.02     0.00  -0.08  -0.07    -0.03   0.00   0.02
  13   6    -0.01  -0.09  -0.06     0.00  -0.11  -0.10    -0.04   0.02   0.05
  14   6    -0.01  -0.15  -0.11     0.00  -0.09  -0.08    -0.03   0.04   0.08
  15   6    -0.00  -0.13  -0.09     0.00  -0.05  -0.04    -0.01   0.04   0.07
  16   7    -0.00  -0.07  -0.04     0.00  -0.05  -0.04    -0.02   0.01   0.03
  17   6     0.00  -0.17  -0.12    -0.00  -0.02  -0.01    -0.00   0.05   0.09
  18   6     0.01  -0.14  -0.10    -0.00   0.03   0.02     0.01   0.03   0.07
  19   6     0.01  -0.16  -0.11    -0.00   0.07   0.06     0.02   0.04   0.08
  20   6     0.02  -0.10  -0.07    -0.00   0.10   0.08     0.03   0.02   0.05
  21   6     0.01  -0.04  -0.03    -0.00   0.08   0.06     0.03  -0.00   0.02
  22   7     0.01  -0.07  -0.05    -0.00   0.04   0.03     0.01   0.01   0.03
  23   6     0.01   0.02   0.02    -0.00   0.09   0.08     0.03  -0.02  -0.01
  24   6     0.01   0.06   0.05    -0.00   0.07   0.06     0.03  -0.03  -0.04
  25   7     0.01   0.06   0.05    -0.00   0.04   0.03     0.01  -0.03  -0.04
  26   1     0.00   0.03   0.03    -0.00   0.03   0.03     0.01  -0.01  -0.02
  27   1     0.00   0.05   0.03    -0.00   0.02   0.01     0.01  -0.01  -0.03
  28   1    -0.00   0.05   0.04     0.00  -0.01  -0.01    -0.01  -0.01  -0.03
  29   1    -0.00   0.04   0.03     0.00  -0.02  -0.02    -0.01  -0.01  -0.02
  30   1    -0.00   0.01   0.01     0.00  -0.03  -0.03    -0.01  -0.01  -0.00
  31   1    -0.00  -0.02  -0.02     0.00  -0.04  -0.04    -0.01   0.01   0.01
  32   1    -0.00  -0.06  -0.04     0.00  -0.03  -0.03    -0.01   0.02   0.03
  33   1     0.00  -0.07  -0.05    -0.00  -0.01  -0.01    -0.00   0.02   0.03
  34   1     0.00  -0.06  -0.04    -0.00   0.02   0.02     0.01   0.02   0.03
  35   1     0.01  -0.03  -0.02    -0.00   0.04   0.03     0.01   0.00   0.01
  36   1     0.01   0.01   0.01    -0.00   0.04   0.03     0.01  -0.01  -0.01
  37  26    -0.01  -0.02   0.01     0.00  -0.00  -0.00    -0.00  -0.04   0.03
  38   6    -0.02  -0.07   0.05    -0.00  -0.06   0.06     0.02  -0.10   0.11
  39   6    -0.01  -0.08   0.05    -0.00  -0.04   0.04     0.01  -0.10   0.12
  40   6    -0.01  -0.06   0.04    -0.00  -0.02   0.02     0.01  -0.08   0.09
  41   6    -0.00  -0.07   0.04     0.00  -0.00   0.00    -0.00  -0.08   0.10
  42   6     0.00  -0.06   0.04     0.00   0.01  -0.02    -0.01  -0.07   0.09
  43   6     0.01  -0.08   0.06    -0.00   0.03  -0.04    -0.01  -0.09   0.11
  44   6     0.01  -0.08   0.06    -0.00   0.06  -0.06    -0.02  -0.09   0.10
  45   6     0.01  -0.05   0.04     0.00   0.05  -0.05    -0.01  -0.06   0.06
  46   7     0.01  -0.05   0.03     0.00   0.02  -0.03    -0.01  -0.06   0.06
  47   6     0.01  -0.03   0.02     0.00   0.07  -0.08    -0.01  -0.03   0.03
  48   6     0.01   0.01  -0.00     0.00   0.07  -0.07    -0.01   0.01  -0.02
  49   6     0.02   0.04  -0.03     0.00   0.09  -0.10    -0.01   0.05  -0.07
  50   6     0.01   0.08  -0.06     0.00   0.07  -0.08    -0.01   0.10  -0.13
  51   6     0.00   0.07  -0.05     0.00   0.04  -0.04    -0.01   0.08  -0.10
  52   7     0.00   0.03  -0.02     0.00   0.04  -0.04    -0.01   0.03  -0.05
  53   6    -0.00   0.09  -0.07     0.00   0.01  -0.00    -0.00   0.10  -0.13
  54   6    -0.01   0.07  -0.06     0.00  -0.03   0.03     0.00   0.07  -0.10
  55   6    -0.02   0.09  -0.07     0.00  -0.06   0.07     0.00   0.09  -0.11
  56   6    -0.02   0.05  -0.04     0.00  -0.09   0.09     0.01   0.04  -0.06
  57   6    -0.02   0.02  -0.01     0.00  -0.06   0.07     0.01   0.00  -0.01
  58   7    -0.01   0.03  -0.03     0.00  -0.03   0.04     0.00   0.03  -0.04
  59   6    -0.02  -0.02   0.01     0.00  -0.07   0.08     0.01  -0.04   0.04
  60   6    -0.01  -0.04   0.03    -0.00  -0.05   0.05     0.01  -0.07   0.07
  61   7    -0.01  -0.04   0.03    -0.00  -0.03   0.03     0.01  -0.06   0.07
  62   1    -0.01  -0.02   0.02    -0.00  -0.02   0.02     0.01  -0.03   0.04
  63   1    -0.00  -0.03   0.02    -0.00  -0.01   0.01     0.00  -0.03   0.04
  64   1     0.00  -0.03   0.02    -0.00   0.01  -0.01    -0.00  -0.03   0.04
  65   1     0.01  -0.02   0.02    -0.00   0.02  -0.02    -0.01  -0.03   0.03
  66   1     0.01  -0.01   0.01     0.00   0.03  -0.03    -0.01  -0.01   0.01
  67   1     0.01   0.01  -0.01     0.00   0.04  -0.04    -0.01   0.01  -0.02
  68   1     0.00   0.03  -0.02     0.00   0.02  -0.03    -0.00   0.04  -0.05
  69   1    -0.00   0.04  -0.03     0.00   0.00  -0.00    -0.00   0.04  -0.05
  70   1    -0.01   0.03  -0.03     0.00  -0.02   0.02     0.00   0.04  -0.05
  71   1    -0.01   0.02  -0.01     0.00  -0.03   0.04     0.00   0.01  -0.01
  72   1    -0.01  -0.01   0.01     0.00  -0.03   0.03     0.01  -0.02   0.02
  73   6     0.00   0.13   0.09    -0.00   0.01   0.01    -0.00  -0.03  -0.08
  74   6     0.00   0.12   0.08    -0.00   0.01   0.01    -0.00  -0.02  -0.09
  75   6     0.00  -0.08  -0.05    -0.00  -0.01  -0.01     0.00   0.05   0.06
  76   6     0.00  -0.08  -0.04    -0.00  -0.01  -0.01     0.00   0.04   0.05
  77   6    -0.00   0.01   0.03     0.00   0.00   0.00     0.00  -0.08  -0.01
  78   6    -0.00   0.02   0.02     0.00   0.00   0.00     0.00  -0.08   0.00
  79   6    -0.00   0.05  -0.03     0.00   0.00  -0.00     0.00   0.08  -0.05
  80   6    -0.00   0.04  -0.03     0.00   0.00  -0.00     0.00   0.09  -0.07
  81   6    -0.00  -0.07   0.04     0.00  -0.00   0.00    -0.00  -0.06   0.10
  82   6    -0.00  -0.08   0.04     0.00  -0.01   0.00    -0.00  -0.08   0.10
  83  26     0.00   0.01  -0.03    -0.00  -0.00  -0.01    -0.00   0.06   0.01
  84   6    -0.04   0.06   0.03    -0.01  -0.03  -0.08     0.00   0.01  -0.03
  85   6    -0.03   0.09   0.06    -0.01  -0.02  -0.04     0.00  -0.01  -0.06
  86   6    -0.01   0.08   0.05    -0.00  -0.01  -0.02     0.00  -0.00  -0.05
  87   6     0.00   0.09   0.06    -0.00   0.01   0.01    -0.00  -0.01  -0.07
  88   6     0.02   0.08   0.05    -0.00   0.02   0.03    -0.00  -0.01  -0.06
  89   6     0.04   0.09   0.05     0.00   0.03   0.06    -0.01  -0.01  -0.07
  90   6     0.05   0.06   0.02     0.00   0.04   0.08    -0.01  -0.00  -0.05
  91   6     0.04   0.03  -0.00     0.00   0.03   0.07    -0.00   0.01  -0.02
  92   7     0.02   0.04   0.01     0.00   0.02   0.04    -0.00   0.01  -0.03
  93   6     0.04  -0.00  -0.04     0.00   0.05   0.09    -0.00   0.03   0.01
  94   6     0.03  -0.03  -0.05     0.00   0.04   0.08     0.00   0.04   0.03
  95   6     0.04  -0.06  -0.08     0.00   0.06   0.11     0.00   0.05   0.06
  96   6     0.03  -0.07  -0.08     0.00   0.04   0.08     0.00   0.06   0.06
  97   6     0.01  -0.05  -0.06     0.00   0.02   0.04     0.00   0.05   0.05
  98   7     0.02  -0.03  -0.05     0.00   0.02   0.04     0.00   0.04   0.03
  99   6     0.00  -0.06  -0.05    -0.00  -0.01  -0.01     0.00   0.05   0.05
 100   6    -0.01  -0.05  -0.05    -0.00  -0.03  -0.05    -0.00   0.05   0.05
 101   6    -0.03  -0.07  -0.06    -0.00  -0.06  -0.10    -0.00   0.06   0.07
 102   6    -0.04  -0.05  -0.06    -0.00  -0.07  -0.13    -0.00   0.06   0.07
 103   6    -0.03  -0.02  -0.04    -0.00  -0.05  -0.09    -0.00   0.05   0.04
 104   7    -0.02  -0.03  -0.04    -0.00  -0.03  -0.05    -0.00   0.05   0.04
 105   6    -0.04   0.00  -0.02    -0.00  -0.05  -0.10     0.00   0.04   0.02
 106   6    -0.03   0.03   0.01    -0.00  -0.03  -0.07     0.00   0.02  -0.01
 107   7    -0.02   0.05   0.02    -0.00  -0.02  -0.04     0.00   0.01  -0.02
 108   1    -0.02   0.02   0.01    -0.00  -0.01  -0.03     0.00   0.00  -0.01
 109   1    -0.01   0.03   0.02    -0.00  -0.00  -0.01     0.00  -0.01  -0.03
 110   1     0.01   0.03   0.02     0.00   0.01   0.02    -0.00  -0.01  -0.03
 111   1     0.02   0.02   0.00     0.00   0.01   0.03    -0.00  -0.00  -0.01
 112   1     0.02  -0.00  -0.01     0.00   0.02   0.04    -0.00   0.01   0.00
[...]
 198   6     0.00  -0.00  -0.00    -0.00   0.00   0.00     0.00  -0.00  -0.00
 199   6     0.00  -0.00  -0.00    -0.00   0.00  -0.00    -0.00   0.00   0.00
 200   6    -0.00  -0.01  -0.00     0.00   0.01   0.00     0.00  -0.00  -0.00
 201   6    -0.02  -0.00  -0.00     0.01   0.00   0.00    -0.00  -0.00   0.00
 202   6    -0.00   0.00   0.00     0.00  -0.00  -0.00    -0.00   0.00   0.00
 203   7     0.00  -0.00  -0.00    -0.00  -0.00  -0.00     0.00   0.00   0.00
 204   6     0.00  -0.00  -0.00     0.00   0.00   0.00     0.00  -0.00  -0.00
 205   6    -0.00  -0.00  -0.00     0.00   0.00   0.00     0.00   0.00   0.00
 206   6    -0.02   0.00  -0.00     0.01  -0.00   0.00     0.00  -0.00   0.00
 207   6     0.00   0.01   0.00     0.00  -0.00  -0.00    -0.00  -0.00  -0.00
 208   6     0.00   0.00   0.00    -0.00  -0.00  -0.00    -0.00   0.00   0.00
 209   7     0.00   0.00   0.00    -0.00   0.00   0.00    -0.00  -0.00   0.00
 210   6     0.00   0.00   0.00    -0.00  -0.00  -0.00    -0.00  -0.00  -0.00
 211   6    -0.00   0.00   0.00     0.00  -0.00   0.00     0.00  -0.00   0.00
 212   7    -0.00  -0.00  -0.00     0.00   0.00   0.00     0.00   0.00   0.00
 213   1    -0.01  -0.08  -0.04     0.00   0.06   0.03     0.01   0.15   0.07
 214   1    -0.19  -0.02  -0.02     0.14   0.02   0.02     0.40   0.05   0.05
 215   1    -0.27   0.03   0.03     0.13  -0.02  -0.01    -0.40   0.05   0.04
 216   1    -0.01   0.11   0.05     0.00  -0.05  -0.02    -0.01   0.14   0.06
 217   1     0.00   0.00   0.00    -0.00  -0.00  -0.00     0.00   0.00   0.00
 218   1     0.00   0.04   0.01    -0.00  -0.02  -0.01     0.00   0.00   0.00
 219   1     0.08   0.01   0.00    -0.03  -0.00  -0.00     0.01   0.00   0.00
 220   1     0.06  -0.01  -0.00    -0.02   0.00   0.00    -0.01   0.00   0.00
 221   1     0.00  -0.03  -0.01    -0.00   0.01   0.00    -0.00   0.01   0.00
 222   1     0.00  -0.00  -0.00    -0.00   0.00   0.00    -0.00   0.00   0.00
                    658                    659                    660
                        a                      a                      a 
 Frequencies --  3170.4358              3170.7343              3170.9063
 Red. masses --     1.9479                 1.9490                 1.9485
 Frc consts  --     0.0000                 0.0000                 0.0000
 IR Inten    --    68.1882             13788.9300              1163.9186
 Raman Activ --     0.0000                 0.0000                 0.0000
 Depolar     --     0.0000                 0.0000                 0.0000
 Atom AN      X      Y      Z        X      Y      Z        X      Y      Z
   1  26    -0.00  -0.00   0.00    -0.00   0.00   0.00    -0.00   0.00   0.00
   2   6    -0.00   0.00  -0.00    -0.00  -0.00   0.00    -0.00  -0.00   0.00
   3   6    -0.00   0.00  -0.00     0.00  -0.00   0.00     0.00  -0.00   0.00
   4   6    -0.00  -0.00   0.00     0.00   0.00  -0.00     0.00   0.00  -0.00
   5   6     0.00   0.00  -0.00     0.00   0.00  -0.00     0.00   0.00  -0.00
   6   6     0.00   0.00  -0.00     0.00  -0.00   0.00     0.00  -0.00   0.00
   7   6    -0.00  -0.00   0.00     0.00   0.00  -0.00     0.01   0.00  -0.00
   8   6    -0.00   0.00  -0.00     0.00   0.00  -0.00    -0.00   0.00  -0.00
   9   6     0.00   0.00  -0.00    -0.00   0.00  -0.00    -0.00   0.00  -0.00
  10   7     0.00   0.00   0.00     0.00   0.00  -0.00    -0.00   0.00  -0.00
  11   6    -0.00   0.00  -0.00    -0.00   0.00  -0.00    -0.00   0.00  -0.00
  12   6    -0.00   0.00  -0.00     0.00   0.00  -0.00     0.00   0.00  -0.00
  13   6    -0.00  -0.00   0.00    -0.00   0.00  -0.00    -0.00  -0.00   0.00
  14   6     0.00  -0.00   0.00     0.00  -0.00   0.00     0.00  -0.00   0.00
  15   6     0.00   0.00  -0.00    -0.00  -0.00   0.00     0.00  -0.00   0.00
  16   7    -0.00  -0.00   0.00    -0.00   0.00  -0.00    -0.00   0.00  -0.00
  17   6     0.00   0.00  -0.00    -0.00   0.00  -0.00     0.00  -0.00  -0.00
  18   6     0.00  -0.00   0.00    -0.00   0.00  -0.00     0.00  -0.00   0.00
  19   6     0.00   0.00  -0.00     0.00   0.00   0.00     0.00   0.00  -0.00
  20   6     0.00   0.00  -0.00    -0.00  -0.00   0.00    -0.00   0.00  -0.00
  21   6    -0.00   0.00  -0.00     0.00  -0.00   0.00     0.00  -0.00   0.00
  22   7    -0.00  -0.00   0.00    -0.00  -0.00   0.00    -0.00  -0.00   0.00
  23   6    -0.00   0.00  -0.00    -0.00  -0.00   0.00    -0.00  -0.00   0.00
  24   6     0.00   0.00  -0.00    -0.00  -0.00   0.00    -0.00  -0.00   0.00
  25   7     0.00  -0.00   0.00     0.00  -0.00   0.00     0.00  -0.00   0.00
  26   1     0.00  -0.00   0.00    -0.00   0.00  -0.00    -0.00   0.00  -0.00
  27   1     0.00  -0.00   0.00    -0.01   0.00  -0.00    -0.01   0.00  -0.00
  28   1     0.00   0.00  -0.00    -0.01  -0.00   0.00    -0.02  -0.00   0.00
  29   1    -0.00  -0.00   0.00    -0.00  -0.00   0.00    -0.00  -0.00   0.01
  30   1    -0.00  -0.00   0.00     0.00  -0.00   0.00    -0.00  -0.00   0.00
  31   1    -0.00   0.00  -0.00     0.00  -0.00   0.00    -0.00   0.00  -0.00
  32   1    -0.00   0.00  -0.00    -0.00   0.00  -0.00    -0.00   0.00  -0.00
  33   1    -0.00  -0.00   0.00     0.00  -0.00   0.00    -0.00  -0.00  -0.00
  34   1    -0.00  -0.00   0.00    -0.00  -0.00   0.00    -0.00  -0.00   0.00
  35   1    -0.00  -0.00   0.00     0.00   0.00  -0.00    -0.00  -0.00   0.00
  36   1    -0.00  -0.00   0.00     0.00   0.00  -0.00     0.00   0.00  -0.00
  37  26    -0.00   0.00   0.00     0.00  -0.00  -0.00    -0.00   0.00  -0.00
  38   6     0.00  -0.00  -0.00    -0.00  -0.00  -0.00    -0.00  -0.00  -0.00
  39   6     0.00  -0.00  -0.00     0.01  -0.00  -0.00     0.00  -0.00  -0.00
  40   6     0.00   0.00   0.00     0.00   0.00   0.00     0.00   0.00   0.00
  41   6    -0.00   0.00  -0.00     0.00   0.00   0.00    -0.00  -0.00   0.00
  42   6     0.00  -0.00  -0.00     0.00  -0.00  -0.00     0.00  -0.00  -0.00
  43   6     0.00   0.00   0.00     0.01   0.00   0.00     0.00   0.00   0.00
  44   6     0.00   0.00   0.00    -0.00   0.00   0.00    -0.00   0.00   0.00
  45   6    -0.00  -0.00  -0.00    -0.00   0.00   0.00    -0.00   0.00   0.00
  46   7    -0.00  -0.00  -0.00     0.00   0.00   0.00     0.00   0.00   0.00
  47   6     0.00   0.00   0.00    -0.00   0.00   0.00    -0.00   0.00   0.00
  48   6     0.00  -0.00  -0.00     0.00   0.00   0.00     0.00   0.00   0.00
  49   6    -0.00   0.00   0.00    -0.00   0.00   0.00     0.00   0.00   0.00
  50   6    -0.00   0.00   0.00    -0.00   0.00   0.00    -0.00   0.00   0.00
  51   6     0.00  -0.00  -0.00    -0.00  -0.00  -0.00     0.00  -0.00  -0.00
  52   7     0.00  -0.00  -0.00    -0.00   0.00   0.00    -0.00   0.00   0.00
  53   6    -0.00  -0.00  -0.00    -0.00  -0.00   0.00     0.00   0.00  -0.00
  54   6    -0.00   0.00   0.00    -0.00   0.00   0.00     0.00   0.00   0.00
  55   6    -0.00  -0.00  -0.00    -0.00  -0.00  -0.00    -0.00  -0.00  -0.00
  56   6    -0.00  -0.00  -0.00    -0.00  -0.00  -0.00     0.00  -0.00  -0.00
  57   6     0.00  -0.00  -0.00     0.00  -0.00  -0.00     0.00  -0.00  -0.00
  58   7     0.00   0.00   0.00    -0.00  -0.00  -0.00    -0.00  -0.00  -0.00
  59   6    -0.00  -0.00  -0.00    -0.00  -0.00  -0.00    -0.00  -0.00  -0.00
  60   6    -0.00  -0.00  -0.00    -0.00  -0.00  -0.00    -0.00  -0.00  -0.00
  61   7    -0.00   0.00   0.00     0.00  -0.00  -0.00     0.00  -0.00  -0.00
  62   1    -0.00   0.00   0.00    -0.00   0.01   0.01    -0.00   0.00   0.00
  63   1    -0.00   0.00   0.00    -0.02   0.00   0.00    -0.00   0.00   0.00
  64   1    -0.00  -0.00  -0.00    -0.03  -0.00  -0.00    -0.00  -0.00  -0.00
  65   1    -0.00  -0.00  -0.00    -0.00  -0.01  -0.01    -0.00  -0.00  -0.00
  66   1     0.00  -0.00  -0.00     0.00  -0.00  -0.00    -0.00  -0.00  -0.00
  67   1     0.00  -0.00  -0.00     0.00  -0.00  -0.00     0.00  -0.00  -0.00
  68   1     0.00  -0.00  -0.00     0.00  -0.00  -0.00     0.00  -0.00  -0.00
  69   1     0.00   0.00  -0.00     0.00   0.00  -0.00    -0.00  -0.00   0.00
  70   1     0.00   0.00   0.00     0.00   0.00   0.00     0.00   0.00   0.00
  71   1     0.00   0.00   0.00     0.00   0.00   0.00     0.00   0.00   0.00
  72   1    -0.00   0.00   0.00     0.00   0.00   0.00    -0.00   0.00   0.00
  73   6    -0.00  -0.00   0.00     0.00   0.00  -0.00     0.00   0.00  -0.00
  74   6     0.00   0.00  -0.00    -0.00  -0.00   0.00    -0.00  -0.00   0.00
  75   6     0.00   0.00  -0.00    -0.00  -0.00   0.00    -0.00  -0.00   0.00
  76   6    -0.00  -0.00   0.00     0.00   0.00  -0.00    -0.00   0.00  -0.00
  77   6    -0.00  -0.00   0.00    -0.00  -0.00  -0.00    -0.00   0.00  -0.00
  78   6     0.00   0.00  -0.00    -0.00   0.00   0.00     0.00  -0.00   0.00
  79   6     0.00   0.00   0.00    -0.00  -0.00  -0.00     0.00   0.00   0.00
  80   6    -0.00  -0.00  -0.00    -0.00   0.00   0.00     0.00  -0.00  -0.00
  81   6    -0.00  -0.00  -0.00    -0.00   0.00  -0.00     0.00   0.00   0.00
  82   6     0.00   0.00  -0.00     0.00  -0.00  -0.00     0.00  -0.00   0.00
  83  26     0.00  -0.00   0.00     0.00  -0.00  -0.00     0.00  -0.00   0.00
  84   6    -0.00   0.00  -0.00    -0.00   0.00  -0.00     0.00   0.00  -0.00
  85   6     0.00   0.00  -0.00     0.00   0.00  -0.00     0.01   0.00  -0.00
  86   6     0.00  -0.00   0.00     0.00  -0.00   0.00     0.00  -0.00   0.00
  87   6    -0.00   0.00  -0.00     0.00  -0.00   0.00     0.00   0.00  -0.00
  88   6    -0.00  -0.00   0.00     0.00   0.00  -0.00     0.00   0.00  -0.00
  89   6    -0.00   0.00   0.00     0.00  -0.00  -0.00     0.01  -0.00  -0.00
  90   6     0.00   0.00  -0.00    -0.00  -0.00   0.00     0.00  -0.00   0.00
  91   6    -0.00  -0.00   0.00    -0.00   0.00  -0.00    -0.00   0.00  -0.00
  92   7     0.00  -0.00   0.00    -0.00   0.00  -0.00    -0.00   0.00  -0.00
  93   6     0.00   0.00  -0.00    -0.00  -0.00   0.00    -0.00  -0.00   0.00
  94   6    -0.00   0.00   0.00     0.00  -0.00  -0.00     0.00  -0.00  -0.00
  95   6    -0.00   0.03  -0.02     0.00  -0.01   0.00     0.00  -0.05   0.03
  96   6     0.09   0.01  -0.01    -0.02  -0.00   0.00    -0.13  -0.01   0.02
  97   6     0.00  -0.00   0.00    -0.00   0.00  -0.00    -0.00   0.00  -0.00
  98   7    -0.00  -0.00   0.00     0.00   0.00  -0.00     0.00   0.00  -0.00
  99   6    -0.00   0.00  -0.00    -0.00   0.00  -0.00    -0.00   0.00  -0.00
 100   6    -0.00  -0.00   0.00    -0.00  -0.00   0.00    -0.00  -0.00   0.00
 101   6    -0.17   0.01  -0.02    -0.02   0.00  -0.00    -0.13   0.01  -0.01
 102   6     0.00   0.06  -0.03     0.00   0.01  -0.00     0.00   0.05  -0.03
 103   6     0.00   0.00  -0.00     0.00   0.00  -0.00     0.00   0.00  -0.00
 104   7     0.00  -0.00   0.00     0.00  -0.00   0.00     0.00  -0.00   0.00
 105   6    -0.00   0.00  -0.00    -0.00   0.00  -0.00    -0.00   0.00  -0.00
 106   6    -0.00  -0.00   0.00    -0.00  -0.00   0.00    -0.00  -0.00   0.00
 107   7    -0.00   0.00   0.00    -0.00  -0.00   0.00    -0.00  -0.00   0.00
 108   1    -0.00  -0.01   0.00    -0.00  -0.00   0.00    -0.00  -0.01   0.01
 109   1    -0.01  -0.00   0.00    -0.01  -0.00   0.00    -0.02  -0.00   0.00
 110   1     0.00  -0.00   0.00    -0.01   0.00  -0.00    -0.02   0.00  -0.00
 111   1     0.00  -0.00   0.00    -0.00   0.00  -0.00    -0.00   0.01  -0.01
 112   1     0.00  -0.00   0.00    -0.00   0.00  -0.00    -0.00   0.00  -0.00
 113   1    -0.01  -0.10   0.05     0.00   0.02  -0.01     0.01   0.15  -0.08
 114   1    -0.28  -0.03   0.04     0.06   0.01  -0.01     0.42   0.05  -0.06
 115   1     0.55  -0.06   0.06     0.07  -0.01   0.01     0.45  -0.05   0.05
 116   1     0.01  -0.19   0.10     0.00  -0.02   0.01     0.01  -0.16   0.08
 117   1    -0.00  -0.00   0.00    -0.00  -0.00   0.00    -0.00  -0.00   0.00
 118  26    -0.00   0.00  -0.00     0.00  -0.00   0.00     0.00  -0.00   0.00
 119   6     0.00  -0.05   0.01     0.00  -0.01   0.00     0.00  -0.05   0.01
 120   6    -0.11  -0.02  -0.01    -0.01  -0.00  -0.00    -0.10  -0.01  -0.00
 121   6    -0.00   0.00  -0.00    -0.00   0.00  -0.00    -0.00   0.00  -0.00
 122   6     0.00  -0.00   0.00    -0.00   0.00  -0.00    -0.00   0.00  -0.00
 123   6     0.00   0.00  -0.00    -0.00  -0.00   0.00    -0.00  -0.01   0.00
 124   6     0.15  -0.02  -0.00    -0.02   0.00   0.00    -0.15   0.02   0.00
 125   6    -0.00  -0.07   0.01     0.00   0.01  -0.00     0.00   0.07  -0.01
 126   6    -0.00  -0.00   0.00     0.00   0.00  -0.00     0.00   0.00  -0.00
 127   7    -0.00   0.00  -0.00     0.00  -0.00   0.00     0.00  -0.00   0.00
 128   6     0.00  -0.00   0.00    -0.00   0.00  -0.00    -0.00   0.00  -0.00
 129   6     0.00   0.00  -0.00    -0.00  -0.00   0.00     0.00  -0.00   0.00
 130   6     0.00  -0.00   0.00    -0.00   0.00  -0.00     0.00  -0.00   0.00
 131   6    -0.01  -0.00   0.00     0.01   0.00  -0.00    -0.00  -0.00   0.00
 132   6    -0.00   0.00  -0.00     0.00  -0.00   0.00    -0.00   0.00  -0.00
 133   7     0.00   0.00  -0.00    -0.00  -0.00   0.00     0.00  -0.00   0.00
 134   6     0.00  -0.00   0.00     0.00   0.00  -0.00    -0.00   0.00  -0.00
 135   6     0.00   0.00  -0.00     0.00   0.00  -0.00    -0.00  -0.00   0.00
 136   6     0.00  -0.00   0.00     0.01  -0.00   0.00    -0.01   0.00  -0.00
 137   6    -0.00  -0.00   0.00    -0.00  -0.00   0.00     0.00   0.00  -0.00
 138   6    -0.00   0.00  -0.00    -0.00   0.00  -0.00     0.00   0.00  -0.00
 139   7    -0.00   0.00  -0.00    -0.00   0.00  -0.00     0.00   0.00   0.00
 140   6    -0.00  -0.00   0.00    -0.00  -0.00   0.00    -0.00  -0.00   0.00
 141   6     0.00  -0.00   0.00     0.00   0.00   0.00     0.00  -0.00   0.00
 142   7     0.00   0.00  -0.00     0.00   0.00  -0.00     0.00   0.00  -0.00
 143   1     0.01   0.15  -0.02     0.00   0.02  -0.00     0.01   0.14  -0.02
 144   1     0.37   0.06   0.02     0.04   0.01   0.00     0.34   0.06   0.02
 145   1    -0.50   0.08   0.01     0.07  -0.01  -0.00     0.51  -0.08  -0.01
 146   1    -0.01   0.20  -0.03     0.00  -0.03   0.00     0.01  -0.20   0.03
 147   1     0.00   0.00  -0.00    -0.00  -0.00   0.00    -0.00  -0.00   0.00
 148   1     0.00   0.01  -0.00    -0.00  -0.01   0.00     0.00   0.00  -0.00
 149   1     0.02   0.00  -0.00    -0.03  -0.00   0.00     0.01   0.00  -0.00
 150   1    -0.01   0.00  -0.00    -0.03   0.00  -0.00     0.02  -0.00   0.00
 151   1    -0.00   0.01  -0.00    -0.00   0.01  -0.00     0.00  -0.01   0.00
 152   1    -0.00   0.00  -0.00    -0.00   0.00  -0.00    -0.00   0.00  -0.00
 153  26     0.00  -0.00  -0.00     0.00   0.00   0.00    -0.00   0.00   0.00
 154   6    -0.00   0.00   0.00     0.00   0.01   0.00    -0.00  -0.00  -0.00
 155   6     0.00   0.00   0.00     0.01   0.00   0.00    -0.01  -0.00  -0.00
 156   6     0.00  -0.00  -0.00     0.00  -0.00  -0.00    -0.00   0.00   0.00
 157   6    -0.00   0.00   0.00     0.00   0.00   0.00     0.00  -0.00  -0.00
 158   6     0.00   0.00   0.00     0.00   0.00   0.00    -0.00  -0.00  -0.00
 159   6     0.00  -0.00  -0.00     0.01  -0.00  -0.00    -0.00   0.00   0.00
 160   6     0.00  -0.00  -0.00    -0.00  -0.01  -0.00    -0.00   0.00   0.00
 161   6    -0.00  -0.00  -0.00    -0.00   0.00   0.00     0.00   0.00  -0.00
 162   7    -0.00   0.00   0.00    -0.00   0.00   0.00     0.00  -0.00   0.00
 163   6    -0.00  -0.00  -0.00    -0.00  -0.00  -0.00     0.00   0.00   0.00
 164   6     0.00  -0.00  -0.00     0.00  -0.00  -0.00    -0.00   0.00   0.00
 165   6    -0.00  -0.00  -0.00     0.00  -0.06  -0.00    -0.00   0.01   0.00
 166   6    -0.00  -0.00   0.00    -0.14  -0.02   0.01     0.02   0.00  -0.00
 167   6    -0.00   0.00   0.00    -0.00   0.00   0.00     0.00  -0.00  -0.00
 168   7     0.00   0.00   0.00     0.00   0.00  -0.00    -0.00  -0.00   0.00
 169   6    -0.00   0.00   0.00    -0.00  -0.00  -0.00     0.00   0.00   0.00
 170   6    -0.00  -0.00  -0.00    -0.00  -0.00  -0.00     0.00   0.00   0.00
 171   6    -0.00   0.00  -0.00    -0.11   0.01  -0.00     0.02  -0.00   0.00
 172   6     0.00   0.00   0.00     0.00   0.05   0.00    -0.00  -0.01  -0.00
 173   6     0.00   0.00   0.00     0.00   0.00   0.00    -0.00  -0.00  -0.00
 174   7     0.00  -0.00   0.00     0.00  -0.00  -0.00    -0.00   0.00  -0.00
 175   6     0.00   0.00   0.00    -0.00   0.00   0.00     0.00  -0.00  -0.00
 176   6    -0.00   0.00  -0.00    -0.00  -0.00  -0.00     0.00  -0.00   0.00
 177   7    -0.00  -0.00  -0.00    -0.00  -0.00  -0.00     0.00   0.00   0.00
 178   1    -0.00  -0.00  -0.00    -0.00  -0.02  -0.00     0.00   0.01   0.00
 179   1    -0.01  -0.00  -0.00    -0.04  -0.01  -0.00     0.02   0.00   0.00
 180   1    -0.00   0.00   0.00    -0.03   0.00   0.00     0.02  -0.00  -0.00
 181   1    -0.00   0.00   0.00    -0.00   0.02   0.00     0.00  -0.01  -0.00
 182   1    -0.00   0.00   0.00    -0.00   0.00   0.00     0.00  -0.00  -0.00
 183   1     0.00   0.00   0.00     0.01   0.19   0.01    -0.00  -0.04  -0.00
 184   1     0.01   0.00  -0.00     0.47   0.07  -0.02    -0.08  -0.01   0.00
 185   1     0.01  -0.00   0.00     0.37  -0.06   0.01    -0.07   0.01  -0.00
 186   1     0.00  -0.00  -0.00     0.01  -0.16  -0.01    -0.00   0.03   0.00
 187   1     0.00  -0.00  -0.00    -0.00  -0.00  -0.00     0.00   0.00   0.00
 188  26     0.00   0.00   0.00     0.00  -0.00  -0.00    -0.00   0.00   0.00
 189   6     0.00   0.00   0.00     0.00  -0.04  -0.02    -0.00   0.00   0.00
 190   6     0.00   0.00   0.00    -0.10  -0.01  -0.01     0.01   0.00   0.00
 191   6     0.00  -0.00  -0.00    -0.00   0.00   0.00     0.00  -0.00  -0.00
 192   6     0.00  -0.00  -0.00    -0.00   0.00   0.00     0.00  -0.00  -0.00
 193   6     0.00   0.00   0.00    -0.00  -0.00  -0.00     0.00   0.00   0.00
 194   6     0.00  -0.00  -0.00    -0.16   0.02   0.02     0.02  -0.00  -0.00
 195   6    -0.00  -0.00  -0.00     0.00   0.07   0.03    -0.00  -0.01  -0.00
 196   6    -0.00  -0.00  -0.00     0.00   0.00  -0.00    -0.00  -0.00   0.00
 197   7    -0.00   0.00   0.00     0.00  -0.00  -0.00    -0.00   0.00   0.00
 198   6     0.00  -0.00  -0.00    -0.00   0.00   0.00     0.00   0.00   0.00
 199   6     0.00  -0.00   0.00    -0.00  -0.00  -0.00    -0.00   0.00   0.00
 200   6    -0.00  -0.00  -0.00     0.00   0.01   0.00    -0.00   0.00   0.00
 201   6    -0.00  -0.00  -0.00     0.01   0.00  -0.00     0.00   0.00   0.00
 202   6    -0.00   0.00   0.00     0.00  -0.00  -0.00     0.00  -0.00  -0.00
 203   7     0.00   0.00   0.00    -0.00   0.00   0.00    -0.00   0.00   0.00
 204   6    -0.00  -0.00  -0.00     0.00   0.00   0.00     0.00  -0.00   0.00
 205   6    -0.00  -0.00  -0.00     0.00   0.00   0.00     0.00   0.00   0.00
 206   6    -0.00   0.00  -0.00     0.01  -0.00   0.00     0.00  -0.00   0.00
 207   6    -0.00   0.00   0.00     0.00  -0.00  -0.00    -0.00  -0.00  -0.00
 208   6     0.00   0.00  -0.00    -0.00   0.00   0.00    -0.00  -0.00  -0.00
 209   7     0.00  -0.00  -0.00     0.00  -0.00  -0.00    -0.00  -0.00  -0.00
 210   6     0.00   0.00   0.00    -0.00  -0.00  -0.00     0.00  -0.00  -0.00
 211   6    -0.00   0.00   0.00     0.00  -0.00   0.00    -0.00   0.00  -0.00
 212   7    -0.00  -0.00  -0.00     0.00   0.00   0.00    -0.00  -0.00  -0.00
 213   1    -0.00  -0.00  -0.00     0.01   0.12   0.05    -0.00  -0.01  -0.00
 214   1    -0.00  -0.00  -0.00     0.32   0.04   0.04    -0.03  -0.00  -0.00
 215   1    -0.01   0.00   0.00     0.53  -0.07  -0.06    -0.05   0.01   0.01
 216   1    -0.00   0.00   0.00     0.01  -0.20  -0.09    -0.00   0.02   0.01
 217   1     0.00   0.00   0.00    -0.00  -0.00  -0.00     0.00  -0.00  -0.00
 218   1     0.00   0.00   0.00    -0.00  -0.02  -0.01    -0.00  -0.00  -0.00
 219   1     0.00   0.00   0.00    -0.03  -0.00  -0.00    -0.01  -0.00  -0.00
 220   1     0.00  -0.00  -0.00    -0.02   0.00  -0.00    -0.01   0.00   0.00
 221   1     0.00  -0.00  -0.00    -0.00   0.02   0.01    -0.00   0.00   0.00
 222   1     0.00  -0.00  -0.00    -0.00   0.00   0.00     0.00   0.00   0.00
