      -----------------------------------------------------------      
     |                   =====================                   |     
     |                           x T B                           |     
     |                   =====================                   |     
     |                         S. Grimme                         |     
     |          Mulliken Center for Theoretical Chemistry        |     
     |                    University of Bonn                     |     
      -----------------------------------------------------------      

   * xtb version 6.4.1 (bd6e46d) compiled by 'conda@4901f00b25ba' on 2021-06-10

   xtb is free software: you can redistribute it and/or modify it under
   the terms of the GNU Lesser General Public License as published by
   the Free Software Foundation, either version 3 of the License, or
   (at your option) any later version.
   
   xtb is distributed in the hope that it will be useful,
   but WITHOUT ANY WARRANTY; without even the implied warranty of
   MERCHANTABILITY or FITNESS FOR A PARTICULAR PURPOSE.  See the
   GNU Lesser General Public License for more details.
   
   Cite this work as:
   * C. Bannwarth, E. Caldeweyher, S. Ehlert, A. Hansen, P. Pracht,
     J. Seibert, S. Spicher, S. Grimme, WIREs Comput. Mol. Sci., 2020, 11,
     e01493. DOI: 10.1002/wcms.1493
   
   for GFN2-xTB:
   * C. Bannwarth, S. Ehlert and S. Grimme., J. Chem. Theory Comput., 2019,
     15, 1652-1671. DOI: 10.1021/acs.jctc.8b01176
   for GFN1-xTB:
   * S. Grimme, C. Bannwarth, P. Shushkov, J. Chem. Theory Comput., 2017,
     13, 1989-2009. DOI: 10.1021/acs.jctc.7b00118
   for GFN0-xTB:
   * P. Pracht, E. Caldeweyher, S. Ehlert, S. Grimme, ChemRxiv, 2019, preprint.
     DOI: 10.26434/chemrxiv.8326202.v1
   for GFN-FF:
   * S. Spicher and S. Grimme, Angew. Chem. Int. Ed., 2020, 59, 15665-15673.
     DOI: 10.1002/anie.202004239
   
   for DFT-D4:
   * E. Caldeweyher, C. Bannwarth and S. Grimme, J. Chem. Phys., 2017,
     147, 034112. DOI: 10.1063/1.4993215
   * E. Caldeweyher, S. Ehlert, A. Hansen, H. Neugebauer, S. Spicher,
     C. Bannwarth and S. Grimme, J. Chem. Phys., 2019, 150, 154122.
     DOI: 10.1063/1.5090222
   * E. Caldeweyher, J.-M. Mewes, S. Ehlert and S. Grimme, Phys. Chem. Chem. Phys.
     2020, 22, 8499-8512. DOI: 10.1039/D0CP00502A
   
   for sTDA-xTB:
   * S. Grimme and C. Bannwarth, J. Chem. Phys., 2016, 145, 054103.
     DOI: 10.1063/1.4959605
   
   in the mass-spec context:
   * V. Asgeirsson, C. Bauer and S. Grimme, Chem. Sci., 2017, 8, 4879.
     DOI: 10.1039/c7sc00601b
   * J. Koopman and S. Grimme, ACS Omega 2019, 4, 12, 15120-15133.
     DOI: 10.1021/acsomega.9b02011
   
   for metadynamics refer to:
   * S. Grimme, J. Chem. Theory Comput., 2019, 155, 2847-2862
     DOI: 10.1021/acs.jctc.9b00143
   
   for SPH calculations refer to:
   * S. Spicher and S. Grimme, J. Chem. Theory Comput., 2021, 17, 1701-1714
     DOI: 10.1021/acs.jctc.0c01306
   
   with help from (in alphabetical order)
   P. Atkinson, C. Bannwarth, F. Bohle, G. Brandenburg, E. Caldeweyher
   M. Checinski, S. Dohm, S. Ehlert, S. Ehrlich, I. Gerasimov, J. Koopman
   C. Lavigne, S. Lehtola, F. März, M. Müller, F. Musil, H. Neugebauer
   J. Pisarek, C. Plett, P. Pracht, J. Seibert, P. Shushkov, S. Spicher
   M. Stahn, M. Steiner, T. Strunk, J. Stückrath, T. Rose, and J. Unsleber
   
 * started run on 2021/11/19 at 21:05:23.385     

           -------------------------------------------------
          |                Calculation Setup                |
           -------------------------------------------------

          program call               : /home/jeff/miniconda3/bin/xtb input_structure_1.xyz --gfn 2 --ohess normal --parallel 1 --etemp 300 --chrg 0 --uhf 0 -I det_control.in
          hostname                   : jelfscompute1
          coordinate file            : input_structure_1.xyz
          omp threads                :                     1
          number of atoms            :                   222
          number of electrons        :                   750
          charge                     :                     0
          spin                       :                   0.0
          first test random number   :      0.80246136320705

   ID    Z sym.   atoms
    1   26 Fe     1, 37, 83, 118, 153, 188
    2    6 C      2-9, 11-15, 17-21, 23, 24, 38-45, 47-51, 53-57, 59, 60,
                  73-82, 84-91, 93-97, 99-103, 105, 106, 119-126, 128-132,
                  134-138, 140, 141, 154-161, 163-167, 169-173, 175, 176,
                  189-196, 198-202, 204-208, 210, 211
    3    7 N      10, 16, 22, 25, 46, 52, 58, 61, 92, 98, 104, 107, 127, 133,
                  139, 142, 162, 168, 174, 177, 197, 203, 209, 212
    4    1 H      26-36, 62-72, 108-117, 143-152, 178-187, 213-222

molecular fragmentation (1/2 indicates fragments):
111111111111111111111111111111111111222222222222222222222222222222222222
222222222222222222222222222222222222222222222222222222222222222222222222
222222222222222222222222222222222222222222222222222222222222222222222222
222222
# atoms in fragment 1/2:    36   186
 fragment masses (1/2) :      363.17     1931.95
CMA distance (Bohr)    :  63.563
constraining FC (au)   :  0.0500

           -------------------------------------------------
          |                 G F N 2 - x T B                 |
           -------------------------------------------------

        Reference                      10.1021/acs.jctc.8b01176
      * Hamiltonian:
        H0-scaling (s, p, d)           1.850000    2.230000    2.230000
        zeta-weighting                 0.500000
      * Dispersion:
        s8                             2.700000
        a1                             0.520000
        a2                             5.000000
        s9                             5.000000
      * Repulsion:
        kExp                           1.500000    1.000000
        rExp                           1.000000
      * Coulomb:
        alpha                          2.000000
        third order                    shell-resolved
        anisotropic                    true
        a3                             3.000000
        a5                             4.000000
        cn-shift                       1.200000
        cn-exp                         4.000000
        max-rad                        5.000000


          ...................................................
          :                      SETUP                      :
          :.................................................:
          :  # basis functions                 738          :
          :  # atomic orbitals                 732          :
          :  # shells                          388          :
          :  # electrons                       750          :
          :  max. iterations                   250          :
          :  Hamiltonian                  GFN2-xTB          :
          :  restarted?                      false          :
          :  GBSA solvation                  false          :
          :  PC potential                    false          :
          :  electronic temp.          300.0000000     K    :
          :  accuracy                    1.0000000          :
          :  -> integral cutoff          0.2500000E+02      :
          :  -> integral neglect         0.1000000E-07      :
          :  -> SCF convergence          0.1000000E-05 Eh   :
          :  -> wf. convergence          0.1000000E-03 e    :
          :  Broyden damping             0.4000000          :
          ...................................................

 iter      E             dE          RMSdq      gap      omega  full diag
   1   -399.3658480 -0.399366E+03  0.825E+00    0.13       0.0  T
   2   -373.0967955  0.262691E+02  0.120E+01    0.10       1.0  T
   3   -379.5902245 -0.649343E+01  0.785E+00    0.03       1.0  T
   4   -260.6654327  0.118925E+03  0.103E+01    0.06       1.0  T
   5   -354.9828981 -0.943175E+02  0.958E+00    0.01       1.0  T
   6   -372.0661629 -0.170833E+02  0.685E+00    0.01       1.0  T
   7   -366.8315742  0.523459E+01  0.754E+00    0.13       1.0  T
   8   -375.5542443 -0.872267E+01  0.710E+00    0.07       1.0  T
   9   -385.9838947 -0.104297E+02  0.606E+00    0.01       1.0  T
  10   -381.2023591  0.478154E+01  0.581E+00    0.03       1.0  T
  11   -397.6606631 -0.164583E+02  0.475E+00    0.01       1.0  T
  12   -397.5727674  0.878956E-01  0.469E+00    0.02       1.0  T
  13   -389.6986400  0.787413E+01  0.589E+00    0.05       1.0  T
  14   -388.0592455  0.163939E+01  0.594E+00    0.02       1.0  T
  15   -383.4736913  0.458555E+01  0.610E+00    0.02       1.0  T
  16   -387.9539363 -0.448025E+01  0.589E+00    0.03       1.0  T
  17   -388.2701716 -0.316235E+00  0.546E+00    0.01       1.0  T
  18   -394.2713027 -0.600113E+01  0.618E+00    0.04       1.0  T
  19   -399.3302629 -0.505896E+01  0.567E+00    0.01       1.0  T
  20   -394.4130109  0.491725E+01  0.623E+00    0.10       1.0  T
  21   -394.3736631  0.393478E-01  0.623E+00    0.08       1.0  T
  22   -394.3604205  0.132426E-01  0.625E+00    0.09       1.0  T
  23   -393.6004638  0.759957E+00  0.638E+00    0.12       1.0  T
  24   -394.2075265 -0.607063E+00  0.608E+00    0.05       1.0  T
  25   -395.6196099 -0.141208E+01  0.602E+00    0.02       1.0  T
  26   -396.3511275 -0.731518E+00  0.580E+00    0.04       1.0  T
  27   -391.1689529  0.518217E+01  0.667E+00    0.21       1.0  T
  28   -390.0706000  0.109835E+01  0.728E+00    0.02       1.0  T
  29   -390.6065938 -0.535994E+00  0.722E+00    0.07       1.0  T
  30   -389.5066916  0.109990E+01  0.719E+00    0.07       1.0  T
  31   -395.9610538 -0.645436E+01  0.637E+00    0.03       1.0  T
  32   -399.7872715 -0.382622E+01  0.652E+00    0.01       1.0  T
  33   -398.7581598  0.102911E+01  0.638E+00    0.05       1.0  T
  34   -394.9785941  0.377957E+01  0.682E+00    0.03       1.0  T
  35   -396.1955447 -0.121695E+01  0.677E+00    0.03       1.0  T
  36   -397.0562052 -0.860660E+00  0.665E+00    0.00       1.0  T
  37   -398.1503209 -0.109412E+01  0.652E+00    0.01       1.0  T
  38   -398.4354538 -0.285133E+00  0.651E+00    0.00       1.0  T
  39   -396.8354148  0.160004E+01  0.702E+00    0.05       1.0  T
  40   -396.2269136  0.608501E+00  0.735E+00    0.03       1.0  T
  41   -396.2214572  0.545644E-02  0.734E+00    0.02       1.0  T
  42   -397.5916879 -0.137023E+01  0.709E+00    0.02       1.0  T
  43   -397.5858223  0.586563E-02  0.712E+00    0.02       1.0  T
  44   -396.3191109  0.126671E+01  0.760E+00    0.04       1.0  T
  45   -396.8397968 -0.520686E+00  0.743E+00    0.01       1.0  T
  46   -396.1422991  0.697498E+00  0.772E+00    0.03       1.0  T
  47   -395.7871062  0.355193E+00  0.781E+00    0.06       1.0  T
  48   -396.3103548 -0.523249E+00  0.755E+00    0.04       1.0  T
  49   -396.4748582 -0.164503E+00  0.747E+00    0.03       1.0  T
  50   -396.6278936 -0.153035E+00  0.733E+00    0.01       1.0  T
  51   -396.1052425  0.522651E+00  0.747E+00    0.02       1.0  T
  52   -396.4825680 -0.377325E+00  0.719E+00    0.02       1.0  T
  53   -396.5302390 -0.476711E-01  0.710E+00    0.00       1.0  T
  54   -395.7900305  0.740208E+00  0.732E+00    0.01       1.0  T
  55   -395.7882041  0.182642E-02  0.729E+00    0.01       1.0  T
  56   -397.3824081 -0.159420E+01  0.702E+00    0.00       1.0  T
  57   -397.0983341  0.284074E+00  0.709E+00    0.01       1.0  T
  58   -397.3761316 -0.277798E+00  0.698E+00    0.02       1.0  T
  59   -398.2568811 -0.880749E+00  0.748E+00    0.00       1.0  T
  60   -398.5623951 -0.305514E+00  0.744E+00    0.00       1.0  T
  61   -398.5278899  0.345052E-01  0.749E+00    0.01       1.0  T
  62   -398.4324016  0.954883E-01  0.751E+00    0.01       1.0  T
  63   -397.1639316  0.126847E+01  0.782E+00    0.02       1.0  T
  64   -396.8094402  0.354491E+00  0.777E+00    0.01       1.0  T
  65   -398.8865999 -0.207716E+01  0.741E+00    0.01       1.0  T
  66   -398.4316489  0.454951E+00  0.740E+00    0.01       1.0  T
  67   -396.8747235  0.155693E+01  0.772E+00    0.03       1.0  T
  68   -396.8401567  0.345668E-01  0.770E+00    0.04       1.0  T
  69   -397.2006175 -0.360461E+00  0.757E+00    0.01       1.0  T
  70   -396.7280916  0.472526E+00  0.765E+00    0.03       1.0  T
  71   -395.5815003  0.114659E+01  0.776E+00    0.06       1.0  T
  72   -395.4219338  0.159566E+00  0.770E+00    0.05       1.0  T
  73   -395.6446937 -0.222760E+00  0.714E+00    0.00       1.0  T
  74   -396.4757935 -0.831100E+00  0.703E+00    0.02       1.0  T
  75   -396.2232605  0.252533E+00  0.705E+00    0.03       1.0  T
  76   -396.4529715 -0.229711E+00  0.675E+00    0.01       1.0  T
  77   -396.0558586  0.397113E+00  0.663E+00    0.01       1.0  T
  78   -396.6240951 -0.568236E+00  0.643E+00    0.01       1.0  T
  79   -396.9891492 -0.365054E+00  0.623E+00    0.02       1.0  T
  80   -397.4841374 -0.494988E+00  0.619E+00    0.01       1.0  T
  81   -396.4807003  0.100344E+01  0.644E+00    0.01       1.0  T
  82   -396.2771818  0.203518E+00  0.645E+00    0.00       1.0  T
  83   -397.6276044 -0.135042E+01  0.615E+00    0.01       1.0  T
  84   -396.8206389  0.806966E+00  0.635E+00    0.00       1.0  T
  85   -396.5506642  0.269975E+00  0.643E+00    0.01       1.0  T
  86   -396.2239795  0.326685E+00  0.651E+00    0.01       1.0  T
  87   -397.4165828 -0.119260E+01  0.622E+00    0.01       1.0  T
  88   -397.4735980 -0.570151E-01  0.622E+00    0.00       1.0  T
  89   -397.4578616  0.157364E-01  0.620E+00    0.01       1.0  T
  90   -397.8735096 -0.415648E+00  0.609E+00    0.01       1.0  T
  91   -397.7324103  0.141099E+00  0.611E+00    0.00       1.0  T
  92   -396.8000895  0.932321E+00  0.627E+00    0.02       1.0  T
  93   -400.0089381 -0.320885E+01  0.552E+00    0.01       1.0  T
  94   -399.8711328  0.137805E+00  0.553E+00    0.04       1.0  T
  95   -400.1827536 -0.311621E+00  0.547E+00    0.02       1.0  T
  96   -399.8744480  0.308306E+00  0.553E+00    0.01       1.0  T
  97   -400.1916396 -0.317192E+00  0.542E+00    0.01       1.0  T
  98   -400.9388819 -0.747242E+00  0.507E+00    0.01       1.0  T
  99   -401.8597289 -0.920847E+00  0.486E+00    0.02       1.0  T
 100   -402.0885919 -0.228863E+00  0.475E+00    0.02       1.0  T
 101   -401.6947646  0.393827E+00  0.487E+00    0.02       1.0  T
 102   -402.2541017 -0.559337E+00  0.465E+00    0.00       1.0  T
 103   -402.3907404 -0.136639E+00  0.448E+00    0.01       1.0  T
 104   -402.1535762  0.237164E+00  0.452E+00    0.01       1.0  T
 105   -402.2497587 -0.961824E-01  0.447E+00    0.01       1.0  T
 106   -402.3166727 -0.669140E-01  0.446E+00    0.02       1.0  T
 107   -402.4478803 -0.131208E+00  0.444E+00    0.01       1.0  T
 108   -402.4370161  0.108642E-01  0.441E+00    0.01       1.0  T
 109   -402.4256029  0.114133E-01  0.442E+00    0.02       1.0  T
 110   -402.6623624 -0.236760E+00  0.428E+00    0.01       1.0  T
 111   -402.6586607  0.370172E-02  0.386E+00    0.01       1.0  T
 112   -402.1784344  0.480226E+00  0.363E+00    0.01       1.0  T
 113   -401.4990994  0.679335E+00  0.379E+00    0.01       1.0  T
 114   -400.6664200  0.832679E+00  0.406E+00    0.01       1.0  T
 115   -399.7807545  0.885666E+00  0.446E+00    0.03       1.0  T
 116   -399.7771766  0.357788E-02  0.443E+00    0.03       1.0  T
 117   -400.1876040 -0.410427E+00  0.426E+00    0.00       1.0  T
 118   -399.8215363  0.366068E+00  0.432E+00    0.02       1.0  T
 119   -399.7573159  0.642204E-01  0.447E+00    0.01       1.0  T
 120   -400.9337970 -0.117648E+01  0.402E+00    0.01       1.0  T
 121   -400.4369856  0.496811E+00  0.424E+00    0.01       1.0  T
 122   -401.1776988 -0.740713E+00  0.400E+00    0.01       1.0  T
 123   -403.0464550 -0.186876E+01  0.331E+00    0.00       1.0  T
 124   -401.3373656  0.170909E+01  0.383E+00    0.01       1.0  T
 125   -402.3569291 -0.101956E+01  0.331E+00    0.02       1.0  T
 126   -402.1688123  0.188117E+00  0.335E+00    0.01       1.0  T
 127   -402.3062876 -0.137475E+00  0.443E+00    0.01       1.0  T
 128   -401.9255120  0.380776E+00  0.461E+00    0.01       1.0  T
 129   -401.9284881 -0.297608E-02  0.460E+00    0.00       1.0  T
 130   -401.9972609 -0.687727E-01  0.453E+00    0.01       1.0  T
 131   -402.2929932 -0.295732E+00  0.438E+00    0.01       1.0  T
 132   -402.5585072 -0.265514E+00  0.418E+00    0.00       1.0  T
 133   -402.6002355 -0.417283E-01  0.423E+00    0.01       1.0  T
 134   -402.4090665  0.191169E+00  0.426E+00    0.01       1.0  T
 135   -403.4660068 -0.105694E+01  0.312E+00    0.01       1.0  T
 136   -402.8763767  0.589630E+00  0.312E+00    0.00       1.0  T
 137   -403.7906313 -0.914255E+00  0.317E+00    0.00       1.0  T
 138   -404.2964851 -0.505854E+00  0.267E+00    0.01       1.0  T
 139   -404.4750836 -0.178599E+00  0.235E+00    0.01       1.0  T
 140   -402.9169626  0.155812E+01  0.246E+00    0.00       1.0  T
 141   -403.9186042 -0.100164E+01  0.205E+00    0.00       1.0  T
 142   -404.2944917 -0.375888E+00  0.203E+00    0.00       1.0  T
 143   -404.5038105 -0.209319E+00  0.166E+00    0.01       1.0  T
 144   -404.3800962  0.123714E+00  0.180E+00    0.01       1.0  T
 145   -402.9733173  0.140678E+01  0.257E+00    0.01       1.0  T
 146   -402.9415698  0.317475E-01  0.243E+00    0.00       1.0  T
 147   -404.0885415 -0.114697E+01  0.166E+00    0.01       1.0  T
 148   -399.7119115  0.437663E+01  0.404E+00    0.01       1.0  T
 149   -403.7354806 -0.402357E+01  0.176E+00    0.00       1.0  T
 150   -402.6598986  0.107558E+01  0.239E+00    0.01       1.0  T
 151   -401.2881307  0.137177E+01  0.345E+00    0.01       1.0  T
 152   -404.4505105 -0.316238E+01  0.127E+00    0.00       1.0  T
 153   -399.8986777  0.455183E+01  0.413E+00    0.03       1.0  T
 154   -403.5619861 -0.366331E+01  0.210E+00    0.01       1.0  T
 155   -404.1493491 -0.587363E+00  0.162E+00    0.00       1.0  T
 156   -404.6076007 -0.458252E+00  0.137E+00    0.01       1.0  T
 157   -404.5493733  0.582274E-01  0.141E+00    0.01       1.0  T
 158   -404.2758582  0.273515E+00  0.155E+00    0.00       1.0  T
 159   -404.4656163 -0.189758E+00  0.126E+00    0.00       1.0  T
 160   -404.4864880 -0.208717E-01  0.120E+00    0.01       1.0  T
 161   -404.5222631 -0.357751E-01  0.109E+00    0.01       1.0  T
 162   -404.4194064  0.102857E+00  0.115E+00    0.00       1.0  T
 163   -404.6807699 -0.261363E+00  0.762E-01    0.00       1.0  T
 164   -404.5146856  0.166084E+00  0.962E-01    0.00       1.0  T
 165   -404.7327732 -0.218088E+00  0.553E-01    0.00       1.0  T
 166   -404.6706604  0.621128E-01  0.648E-01    0.00       1.0  T
 167   -404.7237779 -0.531174E-01  0.502E-01    0.00       1.0  T
 168   -404.7460266 -0.222488E-01  0.390E-01    0.00       1.0  T
 169   -404.6965832  0.494434E-01  0.512E-01    0.00       1.0  T
 170   -404.7515144 -0.549311E-01  0.297E-01    0.00       1.0  T
 171   -404.7485637  0.295070E-02  0.302E-01    0.00       1.0  T
 172   -404.7411443  0.741942E-02  0.304E-01    0.00       1.0  T
 173   -404.7319972  0.914709E-02  0.319E-01    0.00       1.0  T
 174   -404.7447693 -0.127721E-01  0.234E-01    0.00       1.0  T
 175   -404.7285963  0.161730E-01  0.305E-01    0.00       1.0  T
 176   -404.7514771 -0.228808E-01  0.176E-01    0.00       1.0  T
 177   -404.7570978 -0.562070E-02  0.129E-01    0.00       1.0  T
 178   -404.7601345 -0.303670E-02  0.885E-02    0.00       1.0  T
 179   -404.7618827 -0.174821E-02  0.557E-02    0.00       1.0  T
 180   -404.7621182 -0.235469E-03  0.378E-02    0.00       1.0  T
 181   -404.7615409  0.577261E-03  0.536E-02    0.00       1.0  T
 182   -404.7618721 -0.331224E-03  0.399E-02    0.00       1.0  T
 183   -404.7619953 -0.123196E-03  0.325E-02    0.00       1.0  T
 184   -404.7621813 -0.185945E-03  0.195E-02    0.00       1.0  T
 185   -404.7619425  0.238821E-03  0.317E-02    0.00       1.0  T
 186   -404.7618438  0.987021E-04  0.349E-02    0.00       1.0  T
 187   -404.7619605 -0.116695E-03  0.295E-02    0.00       1.0  T
 188   -404.7622141 -0.253648E-03  0.175E-02    0.00       1.0  T
 189   -404.7622087  0.542056E-05  0.179E-02    0.00       1.0  T
 190   -404.7622691 -0.604330E-04  0.115E-02    0.00       1.0  T
 191   -404.7622692 -0.989985E-07  0.108E-02    0.00       1.0  T
 192   -404.7622385  0.307542E-04  0.142E-02    0.00       1.0  T
 193   -404.7622292  0.930081E-05  0.154E-02    0.00       1.0  T
 194   -404.7622818 -0.526146E-04  0.104E-02    0.00       1.0  T
 195   -404.7622838 -0.205214E-05  0.996E-03    0.00       1.0  T
 196   -404.7622855 -0.172426E-05  0.940E-03    0.00       1.0  T
 197   -404.7622981 -0.125282E-04  0.628E-03    0.00       1.1  T
 198   -404.7623048 -0.672803E-05  0.421E-03    0.00       1.6  T
 199   -404.7623049 -0.838783E-07  0.400E-03    0.00       1.7  T
 200   -404.7623070 -0.208939E-05  0.301E-03    0.00       2.2  T
 201   -404.7623093 -0.229463E-05  0.151E-03    0.00       4.4  T
 202   -404.7623092  0.387593E-07  0.135E-03    0.00       5.0  T
 203   -404.7623094 -0.146949E-06  0.942E-04    0.00       7.1  T
 204   -404.7623086  0.796307E-06  0.189E-03    0.00       3.5  T
 205   -404.7623091 -0.478549E-06  0.136E-03    0.00       4.9  T
 206   -404.7623095 -0.432868E-06  0.650E-04    0.00      10.3  T

   *** convergence criteria satisfied after 206 iterations ***

         #    Occupation            Energy/Eh            Energy/eV
      -------------------------------------------------------------
         1        2.0000           -0.6784502             -18.4616
       ...           ...                  ...                  ...
       369        1.8732           -0.3326891              -9.0529
       370        1.4879           -0.3311446              -9.0109
       371        1.4737           -0.3311094              -9.0099
       372        1.1460           -0.3304107              -8.9909
       373        1.1302           -0.3303801              -8.9901
       374        1.0924           -0.3303073              -8.9881
       375        1.0384           -0.3302042              -8.9853 (HOMO)
       376        0.9901           -0.3301124              -8.9828 (LUMO)
       377        0.9769           -0.3300873              -8.9821
       378        0.9522           -0.3300403              -8.9809
       379        0.8949           -0.3299308              -8.9779
       380        0.8235           -0.3297923              -8.9741
       ...           ...                  ...                  ...
       732                          1.4374356              39.1146
      -------------------------------------------------------------
                  HL-Gap            0.0000918 Eh            0.0025 eV
             Fermi-level           -0.3301312 Eh           -8.9833 eV

 SCC (total)                   0 d,  0 h,  0 min, 30.358 sec
 SCC setup                      ...        0 min,  0.009 sec (  0.029%)
 Dispersion                     ...        0 min,  0.019 sec (  0.063%)
 classical contributions        ...        0 min,  0.002 sec (  0.007%)
 integral evaluation            ...        0 min,  0.151 sec (  0.497%)
 iterations                     ...        0 min, 29.747 sec ( 97.985%)
 molecular gradient             ...        0 min,  0.413 sec (  1.360%)
 printout                       ...        0 min,  0.018 sec (  0.059%)

         :::::::::::::::::::::::::::::::::::::::::::::::::::::
         ::                     SUMMARY                     ::
         :::::::::::::::::::::::::::::::::::::::::::::::::::::
         :: total energy            -397.740781150959 Eh    ::
         :: gradient norm              0.876121639103 Eh/a0 ::
         :: HOMO-LUMO gap              0.002497398945 eV    ::
         ::.................................................::
         :: SCC energy              -404.762309493712 Eh    ::
         :: -> isotropic ES            0.017976022701 Eh    ::
         :: -> anisotropic ES          0.054359189851 Eh    ::
         :: -> anisotropic XC          0.248170394109 Eh    ::
         :: -> dispersion             -0.312765728250 Eh    ::
         :: repulsion energy           7.020169040465 Eh    ::
         :: add. restraining           0.000000000000 Eh    ::
         :: total charge               0.000000001554 e     ::
         :::::::::::::::::::::::::::::::::::::::::::::::::::::

      ----------------------------------------------------------- 
     |                   =====================                   |
     |                        A N C O P T                        |
     |                   =====================                   |
     |               Approximate Normal Coordinate               |
     |                Rational Function Optimizer                |
      ----------------------------------------------------------- 

          ...................................................
          :                      SETUP                      :
          :.................................................:
          :   optimization level            normal          :
          :   max. optcycles                   666          :
          :   ANC micro-cycles                  20          :
          :   degrees of freedom               660          :
          :.................................................:
          :   RF solver                   davidson          :
          :   write xtbopt.log                true          :
          :   linear?                        false          :
          :   energy convergence         0.5000000E-05 Eh   :
          :   grad. convergence          0.1000000E-02 Eh/α :
          :   maximium RF displ.         1.0000000          :
          :   Hlow (freq-cutoff)         0.1000000E-01      :
          :   Hmax (freq-cutoff)         5.0000000          :
          :   S6 in model hess.         20.0000000          :
          ...................................................

generating ANC from model Hessian ...
Using Lindh-Hessian (1995)
 Shifting diagonal of input Hessian by    1.0026297866943489E-002
 Lowest  eigenvalues of input Hessian
    0.010000    0.010001    0.010001    0.010004    0.010005    0.010011
    0.010011    0.010016    0.010017    0.010019    0.010022    0.010023
    0.010025    0.000000    0.000000    0.000000    0.000000    0.000000
 Highest eigenvalues
    2.211718    2.393222    2.512585    2.732929    2.732932    2.732932


........................................................................
.............................. CYCLE    1 ..............................
........................................................................
   1   -404.7623096 -0.404762E+03  0.395E-04    0.00       0.0  T
   2   -404.7615993  0.710301E-03  0.451E-02    0.00       1.0  T
   3   -404.7623076 -0.708284E-03  0.234E-03    0.00       2.9  T
   4   -404.7621306  0.177006E-03  0.208E-02    0.00       1.0  T
   5   -404.7622728 -0.142281E-03  0.965E-03    0.00       1.0  T
   6   -404.7622620  0.108378E-04  0.115E-02    0.00       1.0  T
   7   -404.7622877 -0.257176E-04  0.777E-03    0.00       1.0  T
   8   -404.7622842  0.351919E-05  0.855E-03    0.00       1.0  T
   9   -404.7622983 -0.141432E-04  0.541E-03    0.00       1.2  T
  10   -404.7622896  0.876992E-05  0.710E-03    0.00       1.0  T
  11   -404.7623069 -0.173286E-04  0.263E-03    0.00       2.6  T
  12   -404.7623062  0.717380E-06  0.287E-03    0.00       2.3  T
  13   -404.7623095 -0.329386E-05  0.594E-04    0.00      11.3  T
  14   -404.7623096 -0.759975E-07  0.380E-04    0.00      17.6  T
  15   -404.7623096 -0.440581E-07  0.219E-04    0.00      30.7  T
     SCC iter.                  ...        0 min,  2.146 sec
     gradient                   ...        0 min,  0.413 sec
 * total energy  :  -397.7407813 Eh     change       -0.1035497E-06 Eh
   gradient norm :     0.8761208 Eh/α   predicted     0.0000000E+00 (-100.00%)
   displ. norm   :     0.5625596 α      lambda       -0.4048385E+00
   maximum displ.:     0.1765525 α      in ANC's #645, #224, #226, ...

........................................................................
.............................. CYCLE    2 ..............................
........................................................................
   1   -404.7152269 -0.404715E+03  0.532E-01    0.00       0.0  T
   2   -396.9645487  0.775068E+01  0.478E+00    0.03       1.0  T
   3   -397.3395785 -0.375030E+00  0.491E+00    0.02       1.0  T
   4   -396.4119774  0.927601E+00  0.494E+00    0.03       1.0  T
   5   -395.5810333  0.830944E+00  0.526E+00    0.05       1.0  T
   6   -400.8747886 -0.529376E+01  0.350E+00    0.01       1.0  T
   7   -397.0238168  0.385097E+01  0.520E+00    0.04       1.0  T
   8   -399.1939701 -0.217015E+01  0.411E+00    0.02       1.0  T
   9   -397.3539332  0.184004E+01  0.483E+00    0.02       1.0  T
  10   -396.0036295  0.135030E+01  0.486E+00    0.03       1.0  T
  11   -400.1136296 -0.411000E+01  0.353E+00    0.01       1.0  T
  12   -400.3888260 -0.275196E+00  0.358E+00    0.01       1.0  T
  13   -402.3594315 -0.197061E+01  0.282E+00    0.00       1.0  T
  14   -402.3967613 -0.373298E-01  0.258E+00    0.01       1.0  T
  15   -403.7735524 -0.137679E+01  0.180E+00    0.01       1.0  T
  16   -403.9053065 -0.131754E+00  0.170E+00    0.02       1.0  T
  17   -403.5774794  0.327827E+00  0.180E+00    0.02       1.0  T
  18   -403.9960338 -0.418554E+00  0.142E+00    0.00       1.0  T
  19   -403.6954627  0.300571E+00  0.169E+00    0.02       1.0  T
  20   -403.9385430 -0.243080E+00  0.143E+00    0.00       1.0  T
  21   -404.6949451 -0.756402E+00  0.492E-01    0.00       1.0  T
  22   -404.4363371  0.258608E+00  0.946E-01    0.00       1.0  T
  23   -403.5070741  0.929263E+00  0.185E+00    0.00       1.0  T
  24   -404.1562212 -0.649147E+00  0.123E+00    0.00       1.0  T
  25   -404.5933699 -0.437149E+00  0.624E-01    0.00       1.0  T
  26   -404.6610380 -0.676681E-01  0.456E-01    0.00       1.0  T
  27   -404.6679075 -0.686953E-02  0.437E-01    0.00       1.0  T
  28   -404.6900087 -0.221012E-01  0.381E-01    0.00       1.0  T
  29   -404.7256149 -0.356062E-01  0.210E-01    0.00       1.0  T
  30   -404.7303141 -0.469919E-02  0.194E-01    0.00       1.0  T
  31   -404.7309584 -0.644296E-03  0.185E-01    0.00       1.0  T
  32   -404.7348973 -0.393888E-02  0.150E-01    0.00       1.0  T
  33   -404.7378034 -0.290609E-02  0.116E-01    0.00       1.0  T
  34   -404.7387287 -0.925315E-03  0.103E-01    0.00       1.0  T
  35   -404.7406154 -0.188672E-02  0.672E-02    0.00       1.0  T
  36   -404.7412979 -0.682523E-03  0.514E-02    0.00       1.0  T
  37   -404.7405342  0.763689E-03  0.631E-02    0.00       1.0  T
  38   -404.7412184 -0.684175E-03  0.438E-02    0.00       1.0  T
  39   -404.7414536 -0.235200E-03  0.373E-02    0.00       1.0  T
  40   -404.7418709 -0.417343E-03  0.176E-02    0.00       1.0  T
  41   -404.7418887 -0.177239E-04  0.153E-02    0.00       1.0  T
  42   -404.7418551  0.335224E-04  0.166E-02    0.00       1.0  T
  43   -404.7419494 -0.942554E-04  0.704E-03    0.00       1.0  T
  44   -404.7419633 -0.139420E-04  0.254E-03    0.00       2.6  T
  45   -404.7419636 -0.267944E-06  0.218E-03    0.00       3.1  T
  46   -404.7419644 -0.752725E-06  0.168E-03    0.00       4.0  T
  47   -404.7419648 -0.404468E-06  0.101E-03    0.00       6.6  T
  48   -404.7419650 -0.223028E-06  0.472E-04    0.00      14.2  T
  49   -404.7419649  0.428129E-07  0.537E-04    0.00      12.5  T
     SCC iter.                  ...        0 min,  6.914 sec
     gradient                   ...        0 min,  0.413 sec
 * total energy  :  -398.0618426 Eh     change       -0.3210614E+00 Eh
   gradient norm :     0.4945455 Eh/α   predicted    -0.2665145E+00 ( -16.99%)
   displ. norm   :     0.6474294 α      lambda       -0.2614419E+00
   maximum displ.:     0.1749994 α      in ANC's #645, #224, #226, ...

........................................................................
.............................. CYCLE    3 ..............................
........................................................................
   1   -404.7535221 -0.404754E+03  0.109E+00    0.01       0.0  T
   2   -397.4876423  0.726588E+01  0.479E+00    0.00       1.0  T
   3   -386.1306592  0.113570E+02  0.671E+00    0.01       1.0  T
   4   -391.5421875 -0.541153E+01  0.674E+00    0.04       1.0  T
   5   -395.1453012 -0.360311E+01  0.548E+00    0.08       1.0  T
   6   -396.3640679 -0.121877E+01  0.513E+00    0.06       1.0  T
   7   -395.6762099  0.687858E+00  0.550E+00    0.08       1.0  T
   8   -398.5117823 -0.283557E+01  0.448E+00    0.01       1.0  T
   9   -395.0764072  0.343538E+01  0.526E+00    0.07       1.0  T
  10   -398.2610449 -0.318464E+01  0.478E+00    0.01       1.0  T
  11   -398.1762137  0.848312E-01  0.464E+00    0.03       1.0  T
  12   -398.5008017 -0.324588E+00  0.434E+00    0.02       1.0  T
  13   -400.3514341 -0.185063E+01  0.371E+00    0.00       1.0  T
  14   -400.5345417 -0.183108E+00  0.363E+00    0.00       1.0  T
  15   -400.1450263  0.389515E+00  0.343E+00    0.01       1.0  T
  16   -402.0196082 -0.187458E+01  0.262E+00    0.04       1.0  T
  17   -403.4495881 -0.142998E+01  0.203E+00    0.01       1.0  T
  18   -402.7097696  0.739818E+00  0.223E+00    0.03       1.0  T
  19   -400.3933814  0.231639E+01  0.381E+00    0.01       1.0  T
  20   -401.9059517 -0.151257E+01  0.304E+00    0.00       1.0  T
  21   -402.3987118 -0.492760E+00  0.276E+00    0.01       1.0  T
  22   -402.8700686 -0.471357E+00  0.244E+00    0.01       1.0  T
  23   -401.9741174  0.895951E+00  0.290E+00    0.00       1.0  T
  24   -402.1473376 -0.173220E+00  0.283E+00    0.01       1.0  T
  25   -402.9510616 -0.803724E+00  0.238E+00    0.01       1.0  T
  26   -403.8762671 -0.925205E+00  0.181E+00    0.01       1.0  T
  27   -404.2085357 -0.332269E+00  0.154E+00    0.00       1.0  T
  28   -404.3405879 -0.132052E+00  0.158E+00    0.01       1.0  T
  29   -404.2261850  0.114403E+00  0.164E+00    0.01       1.0  T
  30   -404.2934246 -0.672397E-01  0.161E+00    0.01       1.0  T
  31   -404.3075100 -0.140854E-01  0.163E+00    0.01       1.0  T
  32   -404.5163761 -0.208866E+00  0.127E+00    0.00       1.0  T
  33   -404.6165034 -0.100127E+00  0.992E-01    0.00       1.0  T
  34   -404.2910268  0.325477E+00  0.122E+00    0.00       1.0  T
  35   -404.3212228 -0.301961E-01  0.113E+00    0.00       1.0  T
  36   -404.4342774 -0.113055E+00  0.929E-01    0.00       1.0  T
  37   -404.5267339 -0.924565E-01  0.818E-01    0.00       1.0  T
  38   -404.6060012 -0.792673E-01  0.712E-01    0.00       1.0  T
  39   -404.5917910  0.142102E-01  0.696E-01    0.00       1.0  T
  40   -404.5749787  0.168123E-01  0.741E-01    0.00       1.0  T
  41   -404.7501065 -0.175128E+00  0.294E-01    0.00       1.0  T
  42   -404.7621723 -0.120659E-01  0.256E-01    0.00       1.0  T
  43   -404.7568231  0.534920E-02  0.281E-01    0.00       1.0  T
  44   -404.7728752 -0.160521E-01  0.189E-01    0.00       1.0  T
  45   -404.7653341  0.754116E-02  0.230E-01    0.00       1.0  T
  46   -404.7709976 -0.566351E-02  0.193E-01    0.00       1.0  T
  47   -404.7730748 -0.207725E-02  0.175E-01    0.00       1.0  T
  48   -404.7730837 -0.888500E-05  0.177E-01    0.00       1.0  T
  49   -404.7777168 -0.463310E-02  0.127E-01    0.00       1.0  T
  50   -404.7803035 -0.258673E-02  0.944E-02    0.00       1.0  T
  51   -404.7829681 -0.266459E-02  0.459E-02    0.00       1.0  T
  52   -404.7823928  0.575291E-03  0.575E-02    0.00       1.0  T
  53   -404.7826198 -0.226973E-03  0.499E-02    0.00       1.0  T
  54   -404.7830945 -0.474721E-03  0.319E-02    0.00       1.0  T
  55   -404.7832092 -0.114673E-03  0.243E-02    0.00       1.0  T
  56   -404.7833078 -0.985909E-04  0.184E-02    0.00       1.0  T
  57   -404.7834144 -0.106593E-03  0.852E-03    0.00       1.0  T
  58   -404.7834353 -0.208671E-04  0.458E-03    0.00       1.5  T
  59   -404.7834326  0.267753E-05  0.507E-03    0.00       1.3  T
  60   -404.7834385 -0.593797E-05  0.292E-03    0.00       2.3  T
  61   -404.7834409 -0.237508E-05  0.144E-03    0.00       4.7  T
  62   -404.7834411 -0.208614E-06  0.123E-03    0.00       5.5  T
  63   -404.7834413 -0.221701E-06  0.792E-04    0.00       8.5  T
  64   -404.7834411  0.209141E-06  0.104E-03    0.00       6.5  T
  65   -404.7834412 -0.749213E-07  0.909E-04    0.00       7.4  T
     SCC iter.                  ...        0 min,  9.185 sec
     gradient                   ...        0 min,  0.413 sec
 * total energy  :  -398.2557984 Eh     change       -0.1939558E+00 Eh
   gradient norm :     0.2084539 Eh/α   predicted    -0.1855146E+00 (  -4.35%)
   displ. norm   :     0.7390888 α      lambda       -0.1281245E+00
   maximum displ.:     0.2180264 α      in ANC's #224, #220, #226, ...

........................................................................
.............................. CYCLE    4 ..............................
........................................................................
   1   -404.8372786 -0.404837E+03  0.180E+00    0.03       0.0  T
   2   -401.7763838  0.306089E+01  0.463E+00    0.02       1.0  T
   3   -381.0704745  0.207059E+02  0.735E+00    0.03       1.0  T
   4   -400.4506215 -0.193801E+02  0.357E+00    0.10       1.0  T
   5   -395.2714142  0.517921E+01  0.548E+00    0.01       1.0  T
   6   -395.7585928 -0.487179E+00  0.546E+00    0.07       1.0  T
   7   -396.0344113 -0.275818E+00  0.527E+00    0.02       1.0  T
   8   -402.4922441 -0.645783E+01  0.264E+00    0.01       1.0  T
   9   -402.4138016  0.784426E-01  0.281E+00    0.01       1.0  T
  10   -402.4382864 -0.244848E-01  0.283E+00    0.00       1.0  T
  11   -402.4602062 -0.219198E-01  0.254E+00    0.00       1.0  T
  12   -403.1575033 -0.697297E+00  0.226E+00    0.00       1.0  T
  13   -402.9327664  0.224737E+00  0.237E+00    0.02       1.0  T
  14   -403.2769034 -0.344137E+00  0.217E+00    0.01       1.0  T
  15   -402.7478444  0.529059E+00  0.236E+00    0.01       1.0  T
  16   -403.4265534 -0.678709E+00  0.196E+00    0.01       1.0  T
  17   -403.4288364 -0.228291E-02  0.207E+00    0.00       1.0  T
  18   -403.1852939  0.243543E+00  0.222E+00    0.00       1.0  T
  19   -403.2137167 -0.284229E-01  0.215E+00    0.00       1.0  T
  20   -403.7114322 -0.497715E+00  0.193E+00    0.00       1.0  T
  21   -403.7349001 -0.234679E-01  0.192E+00    0.01       1.0  T
  22   -403.6202836  0.114616E+00  0.195E+00    0.00       1.0  T
  23   -403.2240514  0.396232E+00  0.215E+00    0.00       1.0  T
  24   -402.2253740  0.998677E+00  0.258E+00    0.00       1.0  T
  25   -403.9959747 -0.177060E+01  0.165E+00    0.00       1.0  T
  26   -403.8107906  0.185184E+00  0.175E+00    0.00       1.0  T
  27   -403.9784278 -0.167637E+00  0.164E+00    0.01       1.0  T
  28   -403.6147691  0.363659E+00  0.189E+00    0.01       1.0  T
  29   -403.6665578 -0.517887E-01  0.186E+00    0.00       1.0  T
  30   -403.6989419 -0.323841E-01  0.187E+00    0.00       1.0  T
  31   -404.2963062 -0.597364E+00  0.152E+00    0.01       1.0  T
  32   -404.6764904 -0.380184E+00  0.131E+00    0.00       1.0  T
  33   -404.6768488 -0.358413E-03  0.124E+00    0.00       1.0  T
  34   -404.7472685 -0.704196E-01  0.967E-01    0.00       1.0  T
  35   -404.8355860 -0.883175E-01  0.765E-01    0.00       1.0  T
  36   -404.8180799  0.175061E-01  0.690E-01    0.00       1.0  T
  37   -404.7896805  0.283994E-01  0.531E-01    0.00       1.0  T
  38   -404.7884153  0.126518E-02  0.466E-01    0.00       1.0  T
  39   -404.7724047  0.160106E-01  0.584E-01    0.00       1.0  T
  40   -404.8152672 -0.428625E-01  0.406E-01    0.01       1.0  T
  41   -404.8399028 -0.246356E-01  0.273E-01    0.00       1.0  T
  42   -404.8647513 -0.248484E-01  0.124E-01    0.00       1.0  T
  43   -404.8601723  0.457892E-02  0.157E-01    0.00       1.0  T
  44   -404.8677112 -0.753891E-02  0.595E-02    0.00       1.0  T
  45   -404.8678745 -0.163266E-03  0.514E-02    0.00       1.0  T
  46   -404.8684623 -0.587829E-03  0.306E-02    0.00       1.0  T
  47   -404.8688025 -0.340163E-03  0.853E-03    0.01       1.0  T
  48   -404.8687976  0.485947E-05  0.928E-03    0.01       1.0  T
  49   -404.8687962  0.148834E-05  0.952E-03    0.01       1.0  T
  50   -404.8688127 -0.165293E-04  0.613E-03    0.01       1.1  T
  51   -404.8688237 -0.109874E-04  0.338E-03    0.01       2.0  T
  52   -404.8688246 -0.889879E-06  0.262E-03    0.01       2.6  T
  53   -404.8688254 -0.862699E-06  0.232E-03    0.01       2.9  T
  54   -404.8688260 -0.606084E-06  0.186E-03    0.01       3.6  T
  55   -404.8688270 -0.929247E-06  0.881E-04    0.01       7.6  T
  56   -404.8688271 -0.183737E-06  0.386E-04    0.01      17.4  T
     SCC iter.                  ...        0 min,  7.909 sec
     gradient                   ...        0 min,  0.414 sec
 * total energy  :  -398.3608981 Eh     change       -0.1050996E+00 Eh
   gradient norm :     0.1209950 Eh/α   predicted    -0.9905651E-01 (  -5.75%)
   displ. norm   :     0.8261732 α      lambda       -0.9323565E-01
   maximum displ.:     0.2330863 α      in ANC's #220, #224, #112, ...

........................................................................
.............................. CYCLE    5 ..............................
........................................................................
   1   -404.9146777 -0.404915E+03  0.217E+00    0.06       0.0  T
   2   -398.9042346  0.601044E+01  0.553E+00    0.00       1.0  T
   3   -376.8943903  0.220098E+02  0.859E+00    0.11       1.0  T
   4   -392.2567972 -0.153624E+02  0.618E+00    0.04       1.0  T
   5   -399.7307869 -0.747399E+01  0.417E+00    0.01       1.0  T
   6   -395.3669400  0.436385E+01  0.569E+00    0.15       1.0  T
   7   -398.8863955 -0.351946E+01  0.436E+00    0.01       1.0  T
   8   -402.3381263 -0.345173E+01  0.349E+00    0.01       1.0  T
   9   -400.6902891  0.164784E+01  0.389E+00    0.00       1.0  T
  10   -402.0883202 -0.139803E+01  0.323E+00    0.06       1.0  T
  11   -402.0193965  0.689237E-01  0.325E+00    0.06       1.0  T
  12   -401.9538475  0.655490E-01  0.322E+00    0.01       1.0  T
  13   -400.9408855  0.101296E+01  0.349E+00    0.03       1.0  T
  14   -399.0991073  0.184178E+01  0.406E+00    0.00       1.0  T
  15   -398.3952489  0.703858E+00  0.432E+00    0.02       1.0  T
  16   -399.4563590 -0.106111E+01  0.393E+00    0.01       1.0  T
  17   -400.8399608 -0.138360E+01  0.340E+00    0.01       1.0  T
  18   -401.6929166 -0.852956E+00  0.303E+00    0.02       1.0  T
  19   -403.7327918 -0.203988E+01  0.205E+00    0.00       1.0  T
  20   -401.1550067  0.257779E+01  0.341E+00    0.00       1.0  T
  21   -403.1292532 -0.197425E+01  0.259E+00    0.00       1.0  T
  22   -403.3799910 -0.250738E+00  0.252E+00    0.02       1.0  T
  23   -403.7332909 -0.353300E+00  0.236E+00    0.02       1.0  T
  24   -404.2900562 -0.556765E+00  0.182E+00    0.03       1.0  T
  25   -400.3180749  0.397198E+01  0.374E+00    0.00       1.0  T
  26   -403.3056488 -0.298757E+01  0.208E+00    0.00       1.0  T
  27   -403.4257284 -0.120080E+00  0.235E+00    0.00       1.0  T
  28   -403.5624466 -0.136718E+00  0.233E+00    0.04       1.0  T
  29   -403.9804363 -0.417990E+00  0.191E+00    0.01       1.0  T
  30   -404.4283095 -0.447873E+00  0.170E+00    0.01       1.0  T
  31   -404.2271128  0.201197E+00  0.182E+00    0.01       1.0  T
  32   -404.1411251  0.859877E-01  0.187E+00    0.00       1.0  T
  33   -404.4426499 -0.301525E+00  0.163E+00    0.00       1.0  T
  34   -404.4715238 -0.288739E-01  0.158E+00    0.00       1.0  T
  35   -404.5217711 -0.502473E-01  0.155E+00    0.00       1.0  T
  36   -404.5190875  0.268357E-02  0.156E+00    0.00       1.0  T
  37   -404.4996919  0.193956E-01  0.150E+00    0.00       1.0  T
  38   -404.4750772  0.246146E-01  0.141E+00    0.01       1.0  T
  39   -404.3363922  0.138685E+00  0.158E+00    0.00       1.0  T
  40   -404.4609438 -0.124552E+00  0.133E+00    0.01       1.0  T
  41   -404.1747285  0.286215E+00  0.153E+00    0.01       1.0  T
  42   -404.4795621 -0.304834E+00  0.123E+00    0.02       1.0  T
  43   -404.6993404 -0.219778E+00  0.102E+00    0.00       1.0  T
  44   -404.9080005 -0.208660E+00  0.598E-01    0.01       1.0  T
  45   -404.8190004  0.890002E-01  0.622E-01    0.00       1.0  T
  46   -404.9332960 -0.114296E+00  0.358E-01    0.01       1.0  T
  47   -404.7308823  0.202414E+00  0.805E-01    0.01       1.0  T
  48   -404.9141193 -0.183237E+00  0.369E-01    0.01       1.0  T
  49   -404.8801737  0.339456E-01  0.439E-01    0.00       1.0  T
  50   -404.9254819 -0.453082E-01  0.340E-01    0.01       1.0  T
  51   -404.9013663  0.241156E-01  0.362E-01    0.00       1.0  T
  52   -404.9267339 -0.253676E-01  0.251E-01    0.01       1.0  T
  53   -404.9372427 -0.105088E-01  0.190E-01    0.01       1.0  T
  54   -404.9366903  0.552361E-03  0.197E-01    0.01       1.0  T
  55   -404.9388746 -0.218421E-02  0.185E-01    0.01       1.0  T
  56   -404.9443642 -0.548966E-02  0.139E-01    0.01       1.0  T
  57   -404.9486762 -0.431200E-02  0.801E-02    0.01       1.0  T
  58   -404.9482984  0.377786E-03  0.802E-02    0.01       1.0  T
  59   -404.9502394 -0.194093E-02  0.386E-02    0.01       1.0  T
  60   -404.9501024  0.136969E-03  0.440E-02    0.01       1.0  T
  61   -404.9503155 -0.213145E-03  0.363E-02    0.01       1.0  T
  62   -404.9505639 -0.248367E-03  0.205E-02    0.01       1.0  T
  63   -404.9506501 -0.861866E-04  0.973E-03    0.01       1.0  T
  64   -404.9506370  0.130788E-04  0.980E-03    0.01       1.0  T
  65   -404.9506357  0.135460E-05  0.962E-03    0.01       1.0  T
  66   -404.9506580 -0.223848E-04  0.611E-03    0.01       1.1  T
  67   -404.9506695 -0.114189E-04  0.238E-03    0.01       2.8  T
  68   -404.9506674  0.205106E-05  0.355E-03    0.01       1.9  T
  69   -404.9506701 -0.273355E-05  0.157E-03    0.01       4.3  T
  70   -404.9506705 -0.328074E-06  0.824E-04    0.01       8.1  T
  71   -404.9506705 -0.796599E-07  0.590E-04    0.01      11.4  T
     SCC iter.                  ...        0 min, 10.156 sec
     gradient                   ...        0 min,  0.413 sec
 * total energy  :  -398.4437453 Eh     change       -0.8284728E-01 Eh
   gradient norm :     0.1066798 Eh/α   predicted    -0.7843835E-01 (  -5.32%)
   displ. norm   :     0.8807129 α      lambda       -0.8066456E-01
   maximum displ.:     0.2591868 α      in ANC's #112, #115, #224, ...

........................................................................
.............................. CYCLE    6 ..............................
........................................................................
   1   -404.9933700 -0.404993E+03  0.218E+00    0.08       0.0  T
   2   -397.6255972  0.736777E+01  0.605E+00    0.01       1.0  T
   3   -376.3191160  0.213065E+02  0.882E+00    0.08       1.0  T
   4   -394.8667903 -0.185477E+02  0.612E+00    0.14       1.0  T
   5   -400.0753189 -0.520853E+01  0.432E+00    0.08       1.0  T
   6   -400.6580863 -0.582767E+00  0.404E+00    0.07       1.0  T
   7   -403.5718374 -0.291375E+01  0.247E+00    0.02       1.0  T
   8   -397.9883332  0.558350E+01  0.468E+00    0.03       1.0  T
   9   -402.2693514 -0.428102E+01  0.323E+00    0.02       1.0  T
  10   -402.0578560  0.211495E+00  0.336E+00    0.04       1.0  T
  11   -402.6848837 -0.627028E+00  0.305E+00    0.01       1.0  T
  12   -403.1229203 -0.438037E+00  0.279E+00    0.01       1.0  T
  13   -402.9642014  0.158719E+00  0.278E+00    0.01       1.0  T
  14   -403.1493895 -0.185188E+00  0.253E+00    0.00       1.0  T
  15   -403.3426330 -0.193244E+00  0.237E+00    0.00       1.0  T
  16   -403.3706590 -0.280259E-01  0.237E+00    0.00       1.0  T
  17   -403.1715650  0.199094E+00  0.234E+00    0.01       1.0  T
  18   -403.1933540 -0.217890E-01  0.233E+00    0.01       1.0  T
  19   -402.4944303  0.698924E+00  0.308E+00    0.01       1.0  T
  20   -401.8801560  0.614274E+00  0.323E+00    0.02       1.0  T
  21   -403.0005337 -0.112038E+01  0.249E+00    0.03       1.0  T
  22   -402.4824888  0.518045E+00  0.283E+00    0.03       1.0  T
  23   -400.7104478  0.177204E+01  0.383E+00    0.00       1.0  T
  24   -400.7849707 -0.745229E-01  0.380E+00    0.01       1.0  T
  25   -401.3759454 -0.590975E+00  0.355E+00    0.01       1.0  T
  26   -401.3167401  0.592053E-01  0.329E+00    0.03       1.0  T
  27   -402.0905837 -0.773844E+00  0.301E+00    0.02       1.0  T
  28   -402.6105125 -0.519929E+00  0.292E+00    0.04       1.0  T
  29   -403.0238609 -0.413348E+00  0.263E+00    0.02       1.0  T
  30   -403.0662004 -0.423396E-01  0.263E+00    0.03       1.0  T
  31   -403.0822522 -0.160517E-01  0.255E+00    0.02       1.0  T
  32   -403.0399186  0.423335E-01  0.255E+00    0.00       1.0  T
  33   -403.0363712  0.354745E-02  0.256E+00    0.01       1.0  T
  34   -402.8941690  0.142202E+00  0.262E+00    0.01       1.0  T
  35   -402.8644493  0.297197E-01  0.263E+00    0.01       1.0  T
  36   -402.8742839 -0.983462E-02  0.263E+00    0.02       1.0  T
  37   -403.0667200 -0.192436E+00  0.252E+00    0.03       1.0  T
  38   -403.5456511 -0.478931E+00  0.205E+00    0.02       1.0  T
  39   -404.2029121 -0.657261E+00  0.224E+00    0.01       1.0  T
  40   -404.5069485 -0.304036E+00  0.221E+00    0.01       1.0  T
  41   -404.0446222  0.462326E+00  0.207E+00    0.02       1.0  T
  42   -403.6886939  0.355928E+00  0.215E+00    0.00       1.0  T
  43   -404.2449189 -0.556225E+00  0.195E+00    0.01       1.0  T
  44   -404.6023125 -0.357394E+00  0.139E+00    0.01       1.0  T
  45   -404.8791177 -0.276805E+00  0.106E+00    0.01       1.0  T
  46   -404.9627951 -0.836774E-01  0.103E+00    0.02       1.0  T
  47   -404.8258260  0.136969E+00  0.120E+00    0.01       1.0  T
  48   -404.8523304 -0.265044E-01  0.107E+00    0.00       1.0  T
  49   -404.9861607 -0.133830E+00  0.780E-01    0.01       1.0  T
  50   -404.8260222  0.160138E+00  0.112E+00    0.00       1.0  T
  51   -404.7875798  0.384425E-01  0.107E+00    0.00       1.0  T
  52   -404.9054909 -0.117911E+00  0.753E-01    0.00       1.0  T
  53   -404.9477356 -0.422447E-01  0.709E-01    0.01       1.0  T
  54   -404.8922374  0.554982E-01  0.817E-01    0.00       1.0  T
  55   -404.9815294 -0.892920E-01  0.508E-01    0.01       1.0  T
  56   -405.0260756 -0.445462E-01  0.192E-01    0.03       1.0  T
  57   -405.0260478  0.278501E-04  0.175E-01    0.03       1.0  T
  58   -405.0270471 -0.999315E-03  0.133E-01    0.03       1.0  T
  59   -405.0284010 -0.135386E-02  0.847E-02    0.03       1.0  T
  60   -405.0286496 -0.248691E-03  0.840E-02    0.03       1.0  T
  61   -405.0296105 -0.960888E-03  0.465E-02    0.03       1.0  T
  62   -405.0294686  0.141918E-03  0.461E-02    0.03       1.0  T
  63   -405.0297892 -0.320626E-03  0.297E-02    0.03       1.0  T
  64   -405.0298345 -0.452709E-04  0.238E-02    0.03       1.0  T
  65   -405.0297364  0.980833E-04  0.269E-02    0.03       1.0  T
  66   -405.0298552 -0.118770E-03  0.111E-02    0.03       1.0  T
  67   -405.0298488  0.644550E-05  0.111E-02    0.03       1.0  T
  68   -405.0298656 -0.168577E-04  0.575E-03    0.03       1.2  T
  69   -405.0298649  0.743505E-06  0.453E-03    0.03       1.5  T
  70   -405.0298646  0.283287E-06  0.396E-03    0.03       1.7  T
  71   -405.0298659 -0.129928E-05  0.226E-03    0.03       3.0  T
  72   -405.0298652  0.660473E-06  0.227E-03    0.03       3.0  T
  73   -405.0298659 -0.664887E-06  0.187E-03    0.03       3.6  T
  74   -405.0298670 -0.111684E-05  0.100E-03    0.03       6.7  T
  75   -405.0298670  0.233435E-07  0.109E-03    0.03       6.2  T
  76   -405.0298672 -0.241592E-06  0.635E-04    0.03      10.6  T
  77   -405.0298672 -0.556719E-08  0.529E-04    0.03      12.7  T
     SCC iter.                  ...        0 min, 10.906 sec
     gradient                   ...        0 min,  0.414 sec
 * total energy  :  -398.5178190 Eh     change       -0.7407361E-01 Eh
   gradient norm :     0.0951213 Eh/α   predicted    -0.7161750E-01 (  -3.32%)
   displ. norm   :     0.9136752 α      lambda       -0.7249477E-01
   maximum displ.:     0.2838962 α      in ANC's #112, #115, #224, ...

........................................................................
.............................. CYCLE    7 ..............................
........................................................................
   1   -405.0796821 -0.405080E+03  0.180E+00    0.10       0.0  T
   2   -397.6790547  0.740063E+01  0.644E+00    0.02       1.0  T
   3   -386.9491158  0.107299E+02  0.720E+00    0.00       1.0  T
   4   -394.9960387 -0.804692E+01  0.618E+00    0.22       1.0  T
   5   -400.1457845 -0.514975E+01  0.425E+00    0.00       1.0  T
   6   -399.1897829  0.956002E+00  0.461E+00    0.01       1.0  T
   7   -403.6572994 -0.446752E+01  0.242E+00    0.00       1.0  T
   8   -400.9500613  0.270724E+01  0.414E+00    0.15       1.0  T
   9   -402.5043539 -0.155429E+01  0.325E+00    0.04       1.0  T
  10   -402.1274168  0.376937E+00  0.341E+00    0.02       1.0  T
  11   -402.4874021 -0.359985E+00  0.320E+00    0.05       1.0  T
  12   -402.4960283 -0.862618E-02  0.320E+00    0.05       1.0  T
  13   -402.9230937 -0.427065E+00  0.277E+00    0.02       1.0  T
  14   -402.3904154  0.532678E+00  0.313E+00    0.05       1.0  T
  15   -403.5406934 -0.115028E+01  0.261E+00    0.06       1.0  T
  16   -403.5849343 -0.442409E-01  0.260E+00    0.06       1.0  T
  17   -403.5600630  0.248713E-01  0.261E+00    0.06       1.0  T
  18   -403.5135102  0.465528E-01  0.260E+00    0.06       1.0  T
  19   -399.4207338  0.409278E+01  0.426E+00    0.02       1.0  T
  20   -397.6862615  0.173447E+01  0.503E+00    0.02       1.0  T
  21   -397.5520005  0.134261E+00  0.523E+00    0.03       1.0  T
  22   -396.8693908  0.682610E+00  0.547E+00    0.04       1.0  T
  23   -397.1926075 -0.323217E+00  0.543E+00    0.01       1.0  T
  24   -394.1815701  0.301104E+01  0.599E+00    0.12       1.0  T
  25   -394.8632487 -0.681679E+00  0.588E+00    0.07       1.0  T
  26   -394.1315945  0.731654E+00  0.602E+00    0.11       1.0  T
  27   -394.3693118 -0.237717E+00  0.600E+00    0.09       1.0  T
  28   -394.1380174  0.231294E+00  0.605E+00    0.10       1.0  T
  29   -396.6563486 -0.251833E+01  0.554E+00    0.03       1.0  T
  30   -396.1225137  0.533835E+00  0.565E+00    0.09       1.0  T
  31   -398.9724483 -0.284993E+01  0.507E+00    0.03       1.0  T
  32   -399.6287750 -0.656327E+00  0.470E+00    0.02       1.0  T
  33   -401.2956550 -0.166688E+01  0.385E+00    0.00       1.0  T
  34   -402.8249746 -0.152932E+01  0.370E+00    0.00       1.0  T
  35   -402.9692038 -0.144229E+00  0.363E+00    0.01       1.0  T
  36   -402.7217518  0.247452E+00  0.345E+00    0.04       1.0  T
  37   -402.3355697  0.386182E+00  0.372E+00    0.02       1.0  T
  38   -402.4834694 -0.147900E+00  0.358E+00    0.01       1.0  T
  39   -402.8458441 -0.362375E+00  0.340E+00    0.02       1.0  T
  40   -403.5381926 -0.692348E+00  0.276E+00    0.00       1.0  T
  41   -403.1846610  0.353532E+00  0.289E+00    0.03       1.0  T
  42   -403.8492031 -0.664542E+00  0.260E+00    0.04       1.0  T
  43   -403.3486832  0.500520E+00  0.274E+00    0.01       1.0  T
  44   -402.8736798  0.475003E+00  0.283E+00    0.02       1.0  T
  45   -402.8593657  0.143141E-01  0.285E+00    0.04       1.0  T
  46   -402.6678266  0.191539E+00  0.294E+00    0.03       1.0  T
  47   -402.8857457 -0.217919E+00  0.282E+00    0.03       1.0  T
  48   -402.2441632  0.641583E+00  0.312E+00    0.03       1.0  T
  49   -403.0824613 -0.838298E+00  0.276E+00    0.03       1.0  T
  50   -403.2291579 -0.146697E+00  0.260E+00    0.01       1.0  T
  51   -402.5502354  0.678922E+00  0.298E+00    0.02       1.0  T
  52   -404.1108525 -0.156062E+01  0.242E+00    0.03       1.0  T
  53   -404.8007515 -0.689899E+00  0.217E+00    0.02       1.0  T
  54   -404.4403701  0.360381E+00  0.217E+00    0.01       1.0  T
  55   -404.8482021 -0.407832E+00  0.196E+00    0.01       1.0  T
  56   -404.9323197 -0.841175E-01  0.203E+00    0.02       1.0  T
  57   -404.9656220 -0.333023E-01  0.169E+00    0.03       1.0  T
  58   -404.9394053  0.262167E-01  0.136E+00    0.03       1.0  T
  59   -404.8838957  0.555097E-01  0.120E+00    0.03       1.0  T
  60   -404.8549667  0.289289E-01  0.115E+00    0.03       1.0  T
  61   -404.9243767 -0.694100E-01  0.102E+00    0.03       1.0  T
  62   -404.8696275  0.547492E-01  0.108E+00    0.03       1.0  T
  63   -405.0429899 -0.173362E+00  0.887E-01    0.05       1.0  T
  64   -405.0573182 -0.143283E-01  0.865E-01    0.05       1.0  T
  65   -405.0436997  0.136185E-01  0.807E-01    0.05       1.0  T
  66   -405.0327818  0.109180E-01  0.868E-01    0.03       1.0  T
  67   -405.0588351 -0.260533E-01  0.798E-01    0.04       1.0  T
  68   -405.0618990 -0.306391E-02  0.731E-01    0.04       1.0  T
  69   -405.0768643 -0.149652E-01  0.656E-01    0.04       1.0  T
  70   -405.0903669 -0.135027E-01  0.556E-01    0.04       1.0  T
  71   -405.1044559 -0.140889E-01  0.461E-01    0.05       1.0  T
  72   -405.1027339  0.172201E-02  0.472E-01    0.04       1.0  T
  73   -405.1062322 -0.349837E-02  0.371E-01    0.05       1.0  T
  74   -405.0997951  0.643714E-02  0.339E-01    0.05       1.0  T
  75   -405.1046161 -0.482102E-02  0.280E-01    0.05       1.0  T
  76   -405.1017412  0.287491E-02  0.201E-01    0.05       1.0  T
  77   -405.1061450 -0.440384E-02  0.112E-01    0.05       1.0  T
  78   -405.1078397 -0.169461E-02  0.918E-02    0.05       1.0  T
  79   -405.1068229  0.101675E-02  0.971E-02    0.05       1.0  T
  80   -405.1082895 -0.146662E-02  0.883E-02    0.05       1.0  T
  81   -405.1081794  0.110108E-03  0.940E-02    0.05       1.0  T
  82   -405.1076562  0.523239E-03  0.966E-02    0.05       1.0  T
  83   -405.1081726 -0.516386E-03  0.799E-02    0.05       1.0  T
  84   -405.1083504 -0.177847E-03  0.735E-02    0.05       1.0  T
  85   -405.1082759  0.744947E-04  0.771E-02    0.05       1.0  T
  86   -405.1089036 -0.627700E-03  0.503E-02    0.05       1.0  T
  87   -405.1090349 -0.131257E-03  0.287E-02    0.05       1.0  T
  88   -405.1089107  0.124216E-03  0.389E-02    0.05       1.0  T
  89   -405.1090271 -0.116419E-03  0.240E-02    0.05       1.0  T
  90   -405.1090646 -0.374979E-04  0.190E-02    0.05       1.0  T
  91   -405.1090374  0.271401E-04  0.189E-02    0.05       1.0  T
  92   -405.1090699 -0.325031E-04  0.146E-02    0.05       1.0  T
  93   -405.1090827 -0.127878E-04  0.117E-02    0.05       1.0  T
  94   -405.1090814  0.132040E-05  0.980E-03    0.05       1.0  T
  95   -405.1090859 -0.446470E-05  0.851E-03    0.05       1.0  T
  96   -405.1090878 -0.189852E-05  0.803E-03    0.05       1.0  T
  97   -405.1090892 -0.145577E-05  0.814E-03    0.05       1.0  T
  98   -405.1090919 -0.267930E-05  0.653E-03    0.05       1.0  T
  99   -405.1090926 -0.640156E-06  0.584E-03    0.05       1.1  T
 100   -405.1090939 -0.133366E-05  0.406E-03    0.05       1.7  T
 101   -405.1090944 -0.528317E-06  0.218E-03    0.05       3.1  T
 102   -405.1090943  0.116970E-06  0.182E-03    0.05       3.7  T
 103   -405.1090946 -0.352457E-06  0.109E-03    0.05       6.2  T
 104   -405.1090948 -0.103364E-06  0.713E-04    0.05       9.4  T
 105   -405.1090948 -0.167503E-07  0.511E-04    0.05      13.1  T
     SCC iter.                  ...        0 min, 15.087 sec
     gradient                   ...        0 min,  0.414 sec
 * total energy  :  -398.5860105 Eh     change       -0.6819153E-01 Eh
   gradient norm :     0.0832973 Eh/α   predicted    -0.6650681E-01 (  -2.47%)
   displ. norm   :     0.9469827 α      lambda       -0.6823052E-01
   maximum displ.:     0.2871267 α      in ANC's #112, #70, #25, ...

........................................................................
.............................. CYCLE    8 ..............................
........................................................................
   1   -405.1661230 -0.405166E+03  0.118E+00    0.10       0.0  T
   2   -401.0874020  0.407872E+01  0.641E+00    0.01       1.0  T
   3   -399.9643778  0.112302E+01  0.502E+00    0.06       1.0  T
   4   -396.0201120  0.394427E+01  0.598E+00    0.22       1.0  T
   5   -401.3084411 -0.528833E+01  0.370E+00    0.00       1.0  T
   6   -402.4034181 -0.109498E+01  0.316E+00    0.02       1.0  T
   7   -403.8745692 -0.147115E+01  0.233E+00    0.02       1.0  T
   8   -403.8740691  0.500134E-03  0.225E+00    0.01       1.0  T
   9   -404.1099430 -0.235874E+00  0.197E+00    0.05       1.0  T
  10   -403.8415023  0.268441E+00  0.270E+00    0.04       1.0  T
  11   -398.7903561  0.505115E+01  0.480E+00    0.00       1.0  T
  12   -403.0757060 -0.428535E+01  0.307E+00    0.00       1.0  T
  13   -404.4618538 -0.138615E+01  0.172E+00    0.00       1.0  T
  14   -403.3623362  0.109952E+01  0.284E+00    0.02       1.0  T
  15   -404.1513695 -0.789033E+00  0.202E+00    0.02       1.0  T
  16   -404.9454097 -0.794040E+00  0.122E+00    0.03       1.0  T
  17   -405.1697012 -0.224291E+00  0.105E+00    0.08       1.0  T
  18   -404.5272875  0.642414E+00  0.149E+00    0.02       1.0  T
  19   -404.7741337 -0.246846E+00  0.126E+00    0.01       1.0  T
  20   -405.1420909 -0.367957E+00  0.960E-01    0.07       1.0  T
  21   -405.1526079 -0.105171E-01  0.910E-01    0.08       1.0  T
  22   -405.1429161  0.969178E-02  0.824E-01    0.07       1.0  T
  23   -405.1399516  0.296454E-02  0.733E-01    0.06       1.0  T
  24   -405.1552831 -0.153315E-01  0.671E-01    0.07       1.0  T
  25   -405.1593109 -0.402772E-02  0.572E-01    0.06       1.0  T
  26   -405.1602771 -0.966209E-03  0.480E-01    0.06       1.0  T
  27   -405.1754660 -0.151889E-01  0.414E-01    0.06       1.0  T
  28   -405.1787301 -0.326406E-02  0.349E-01    0.06       1.0  T
  29   -405.1756960  0.303407E-02  0.320E-01    0.06       1.0  T
  30   -405.1785293 -0.283330E-02  0.270E-01    0.06       1.0  T
  31   -405.1795734 -0.104415E-02  0.243E-01    0.06       1.0  T
  32   -405.1785031  0.107031E-02  0.232E-01    0.06       1.0  T
  33   -405.1806073 -0.210413E-02  0.187E-01    0.06       1.0  T
  34   -405.1808791 -0.271834E-03  0.177E-01    0.06       1.0  T
  35   -405.1818821 -0.100303E-02  0.133E-01    0.06       1.0  T
  36   -405.1819575 -0.753612E-04  0.972E-02    0.06       1.0  T
  37   -405.1829000 -0.942490E-03  0.469E-02    0.06       1.0  T
  38   -405.1828675  0.325142E-04  0.297E-02    0.06       1.0  T
  39   -405.1830500 -0.182531E-03  0.145E-02    0.06       1.0  T
  40   -405.1830695 -0.195039E-04  0.918E-03    0.06       1.0  T
  41   -405.1830673  0.224960E-05  0.837E-03    0.06       1.0  T
  42   -405.1830809 -0.136139E-04  0.591E-03    0.06       1.1  T
  43   -405.1830753  0.552858E-05  0.590E-03    0.06       1.1  T
  44   -405.1830810 -0.568676E-05  0.452E-03    0.06       1.5  T
  45   -405.1830820 -0.964691E-06  0.368E-03    0.06       1.8  T
  46   -405.1830818  0.211933E-06  0.333E-03    0.06       2.0  T
  47   -405.1830829 -0.116929E-05  0.242E-03    0.06       2.8  T
  48   -405.1830832 -0.297011E-06  0.183E-03    0.06       3.7  T
  49   -405.1830834 -0.146241E-06  0.120E-03    0.06       5.6  T
  50   -405.1830835 -0.622417E-07  0.744E-04    0.06       9.0  T
  51   -405.1830834  0.191160E-07  0.474E-04    0.06      14.2  T
     SCC iter.                  ...        0 min,  7.316 sec
     gradient                   ...        0 min,  0.415 sec
 * total energy  :  -398.6525446 Eh     change       -0.6653415E-01 Eh
   gradient norm :     0.0796069 Eh/α   predicted    -0.6470903E-01 (  -2.74%)
   displ. norm   :     0.9775663 α      lambda       -0.6942839E-01
   maximum displ.:     0.3267062 α      in ANC's #70, #25, #112, ...

........................................................................
.............................. CYCLE    9 ..............................
........................................................................
   1   -405.2397386 -0.405240E+03  0.828E-01    0.11       0.0  T
   2   -403.3869840  0.185275E+01  0.428E+00    0.00       1.0  T
   3   -396.5803345  0.680665E+01  0.642E+00    0.03       1.0  T
   4   -402.6523546 -0.607202E+01  0.334E+00    0.07       1.0  T
   5   -402.9588948 -0.306540E+00  0.341E+00    0.03       1.0  T
   6   -402.0763340  0.882561E+00  0.394E+00    0.03       1.0  T
   7   -400.9760962  0.110024E+01  0.455E+00    0.00       1.0  T
   8   -398.5045267  0.247157E+01  0.561E+00    0.02       1.0  T
   9   -401.3245931 -0.282007E+01  0.420E+00    0.00       1.0  T
  10   -401.6114304 -0.286837E+00  0.403E+00    0.00       1.0  T
  11   -403.5026778 -0.189125E+01  0.297E+00    0.00       1.0  T
  12   -404.3278004 -0.825123E+00  0.195E+00    0.01       1.0  T
  13   -402.9638914  0.136391E+01  0.338E+00    0.05       1.0  T
  14   -403.7885093 -0.824618E+00  0.283E+00    0.07       1.0  T
  15   -403.8060899 -0.175806E-01  0.281E+00    0.07       1.0  T
  16   -404.0689959 -0.262906E+00  0.257E+00    0.02       1.0  T
  17   -404.0461158  0.228801E-01  0.262E+00    0.02       1.0  T
  18   -404.1997407 -0.153625E+00  0.213E+00    0.01       1.0  T
  19   -404.1730613  0.266794E-01  0.196E+00    0.01       1.0  T
  20   -404.0118426  0.161219E+00  0.243E+00    0.05       1.0  T
  21   -404.0314540 -0.196114E-01  0.231E+00    0.04       1.0  T
  22   -403.7489327  0.282521E+00  0.223E+00    0.00       1.0  T
  23   -403.6372636  0.111669E+00  0.285E+00    0.04       1.0  T
  24   -404.6315423 -0.994279E+00  0.176E+00    0.00       1.0  T
  25   -405.2142369 -0.582695E+00  0.129E+00    0.08       1.0  T
  26   -405.2043888  0.984806E-02  0.115E+00    0.08       1.0  T
  27   -405.1976499  0.673894E-02  0.110E+00    0.06       1.0  T
  28   -405.2083868 -0.107370E-01  0.111E+00    0.06       1.0  T
  29   -405.2052535  0.313333E-02  0.113E+00    0.06       1.0  T
  30   -405.2059653 -0.711832E-03  0.138E+00    0.04       1.0  T
  31   -405.2074280 -0.146268E-02  0.137E+00    0.04       1.0  T
  32   -405.2094231 -0.199508E-02  0.132E+00    0.05       1.0  T
  33   -405.2348007 -0.253776E-01  0.105E+00    0.05       1.0  T
  34   -405.2399727 -0.517203E-02  0.581E-01    0.06       1.0  T
  35   -405.1945512  0.454215E-01  0.566E-01    0.04       1.0  T
  36   -405.2338828 -0.393316E-01  0.472E-01    0.06       1.0  T
  37   -405.2443375 -0.104547E-01  0.296E-01    0.07       1.0  T
  38   -405.2293066  0.150309E-01  0.411E-01    0.06       1.0  T
  39   -405.2442233 -0.149168E-01  0.276E-01    0.07       1.0  T
  40   -405.2432424  0.980927E-03  0.230E-01    0.07       1.0  T
  41   -405.2452710 -0.202860E-02  0.185E-01    0.08       1.0  T
  42   -405.2470011 -0.173005E-02  0.181E-01    0.08       1.0  T
  43   -405.2477326 -0.731516E-03  0.164E-01    0.08       1.0  T
  44   -405.2479349 -0.202269E-03  0.162E-01    0.07       1.0  T
  45   -405.2483558 -0.420993E-03  0.123E-01    0.07       1.0  T
  46   -405.2485231 -0.167214E-03  0.101E-01    0.07       1.0  T
  47   -405.2483238  0.199273E-03  0.764E-02    0.07       1.0  T
  48   -405.2486356 -0.311838E-03  0.578E-02    0.08       1.0  T
  49   -405.2486337  0.189139E-05  0.386E-02    0.08       1.0  T
  50   -405.2487436 -0.109852E-03  0.207E-02    0.08       1.0  T
  51   -405.2487697 -0.261332E-04  0.113E-02    0.08       1.0  T
  52   -405.2487659  0.381987E-05  0.135E-02    0.08       1.0  T
  53   -405.2487724 -0.649594E-05  0.107E-02    0.08       1.0  T
  54   -405.2487804 -0.804484E-05  0.911E-03    0.08       1.0  T
  55   -405.2487818 -0.135047E-05  0.725E-03    0.08       1.0  T
  56   -405.2487824 -0.573913E-06  0.546E-03    0.08       1.2  T
  57   -405.2487826 -0.246119E-06  0.408E-03    0.08       1.6  T
  58   -405.2487828 -0.164329E-06  0.306E-03    0.08       2.2  T
  59   -405.2487830 -0.185942E-06  0.218E-03    0.08       3.1  T
  60   -405.2487830 -0.651308E-07  0.135E-03    0.08       5.0  T
  61   -405.2487830 -0.198007E-07  0.726E-04    0.08       9.2  T
  62   -405.2487831 -0.151005E-07  0.418E-04    0.08      16.0  T
     SCC iter.                  ...        0 min,  8.874 sec
     gradient                   ...        0 min,  0.415 sec
 * total energy  :  -398.7212443 Eh     change       -0.6869967E-01 Eh
   gradient norm :     0.0820535 Eh/α   predicted    -0.6788834E-01 (  -1.18%)
   displ. norm   :     0.9718263 α      lambda       -0.7026156E-01
   maximum displ.:     0.3528788 α      in ANC's #70, #25, #112, ...

........................................................................
.............................. CYCLE   10 ..............................
........................................................................
   1   -405.3048034 -0.405305E+03  0.814E-01    0.11       0.0  T
   2   -405.2661950  0.386084E-01  0.157E+00    0.04       1.0  T
   3   -403.1803277  0.208587E+01  0.311E+00    0.02       1.0  T
   4   -403.4143366 -0.234009E+00  0.293E+00    0.04       1.0  T
   5   -403.2424351  0.171902E+00  0.315E+00    0.04       1.0  T
   6   -403.6357836 -0.393349E+00  0.303E+00    0.09       1.0  T
   7   -403.6796161 -0.438325E-01  0.301E+00    0.10       1.0  T
   8   -402.0339854  0.164563E+01  0.400E+00    0.02       1.0  T
   9   -403.9995112 -0.196553E+01  0.312E+00    0.11       1.0  T
  10   -403.2686181  0.730893E+00  0.395E+00    0.01       1.0  T
  11   -402.8822457  0.386372E+00  0.377E+00    0.07       1.0  T
  12   -402.8032190  0.790268E-01  0.377E+00    0.08       1.0  T
  13   -402.9028462 -0.996272E-01  0.376E+00    0.08       1.0  T
  14   -403.8639393 -0.961093E+00  0.334E+00    0.04       1.0  T
  15   -403.9673256 -0.103386E+00  0.338E+00    0.01       1.0  T
  16   -402.9442291  0.102310E+01  0.459E+00    0.02       1.0  T
  17   -402.9330688  0.111603E-01  0.480E+00    0.03       1.0  T
  18   -404.7887553 -0.185569E+01  0.199E+00    0.00       1.0  T
  19   -401.6792746  0.310948E+01  0.388E+00    0.00       1.0  T
  20   -403.4532202 -0.177395E+01  0.277E+00    0.05       1.0  T
  21   -404.0306682 -0.577448E+00  0.235E+00    0.05       1.0  T
  22   -404.0358891 -0.522088E-02  0.235E+00    0.05       1.0  T
  23   -403.7941470  0.241742E+00  0.261E+00    0.04       1.0  T
  24   -403.8936960 -0.995489E-01  0.247E+00    0.05       1.0  T
  25   -405.2853054 -0.139161E+01  0.200E+00    0.10       1.0  T
  26   -405.2659951  0.193103E-01  0.192E+00    0.09       1.0  T
  27   -405.2540446  0.119506E-01  0.134E+00    0.07       1.0  T
  28   -405.0545540  0.199491E+00  0.126E+00    0.01       1.0  T
  29   -405.3004033 -0.245849E+00  0.124E+00    0.09       1.0  T
  30   -405.3016322 -0.122895E-02  0.114E+00    0.09       1.0  T
  31   -405.2972266  0.440562E-02  0.103E+00    0.09       1.0  T
  32   -405.2751275  0.220990E-01  0.559E-01    0.07       1.0  T
  33   -405.3015900 -0.264625E-01  0.491E-01    0.10       1.0  T
  34   -405.3030348 -0.144474E-02  0.417E-01    0.10       1.0  T
  35   -405.2845567  0.184781E-01  0.367E-01    0.07       1.0  T
  36   -405.3058728 -0.213161E-01  0.258E-01    0.09       1.0  T
  37   -405.3087165 -0.284374E-02  0.212E-01    0.09       1.0  T
  38   -405.3078355  0.881021E-03  0.197E-01    0.09       1.0  T
  39   -405.3103089 -0.247342E-02  0.153E-01    0.10       1.0  T
  40   -405.3101195  0.189427E-03  0.163E-01    0.10       1.0  T
  41   -405.3099387  0.180827E-03  0.172E-01    0.10       1.0  T
  42   -405.3100162 -0.775259E-04  0.123E-01    0.10       1.0  T
  43   -405.3098133  0.202906E-03  0.986E-02    0.10       1.0  T
  44   -405.3096072  0.206125E-03  0.854E-02    0.09       1.0  T
  45   -405.3096792 -0.720509E-04  0.735E-02    0.09       1.0  T
  46   -405.3098504 -0.171120E-03  0.635E-02    0.09       1.0  T
  47   -405.3099584 -0.108067E-03  0.589E-02    0.09       1.0  T
  48   -405.3101261 -0.167654E-03  0.530E-02    0.09       1.0  T
  49   -405.3104978 -0.371688E-03  0.403E-02    0.09       1.0  T
  50   -405.3106606 -0.162828E-03  0.309E-02    0.09       1.0  T
  51   -405.3107600 -0.993712E-04  0.247E-02    0.09       1.0  T
  52   -405.3108178 -0.578282E-04  0.195E-02    0.09       1.0  T
  53   -405.3108308 -0.129799E-04  0.173E-02    0.09       1.0  T
  54   -405.3108543 -0.235666E-04  0.132E-02    0.09       1.0  T
  55   -405.3108627 -0.836234E-05  0.111E-02    0.09       1.0  T
  56   -405.3108640 -0.129640E-05  0.100E-02    0.09       1.0  T
  57   -405.3108694 -0.536131E-05  0.877E-03    0.09       1.0  T
  58   -405.3108700 -0.593907E-06  0.838E-03    0.09       1.0  T
  59   -405.3108722 -0.224302E-05  0.747E-03    0.09       1.0  T
  60   -405.3108736 -0.140801E-05  0.656E-03    0.09       1.0  T
  61   -405.3108752 -0.154771E-05  0.578E-03    0.09       1.2  T
  62   -405.3108777 -0.255149E-05  0.352E-03    0.09       1.9  T
  63   -405.3108788 -0.109547E-05  0.221E-03    0.09       3.0  T
  64   -405.3108791 -0.344352E-06  0.106E-03    0.09       6.3  T
  65   -405.3108791  0.185315E-08  0.924E-04    0.09       7.3  T
  66   -405.3108792 -0.363609E-07  0.807E-04    0.09       8.3  T
     SCC iter.                  ...        0 min,  9.444 sec
     gradient                   ...        0 min,  0.416 sec
 * total energy  :  -398.7886981 Eh     change       -0.6745379E-01 Eh
   gradient norm :     0.0872177 Eh/α   predicted    -0.6830994E-01 (   1.27%)
   displ. norm   :     0.9443955 α      lambda       -0.6624277E-01
   maximum displ.:     0.3649133 α      in ANC's #25, #70, #18, ...

........................................................................
.............................. CYCLE   11 ..............................
........................................................................
   1   -405.3511925 -0.405351E+03  0.645E-01    0.13       0.0  T
   2   -405.3468839  0.430866E-02  0.712E-01    0.11       1.0  T
   3   -405.2415811  0.105303E+00  0.832E-01    0.04       1.0  T
   4   -404.0689901  0.117259E+01  0.302E+00    0.17       1.0  T
   5   -405.1208407 -0.105185E+01  0.110E+00    0.02       1.0  T
   6   -405.3006782 -0.179837E+00  0.493E-01    0.07       1.0  T
   7   -404.9444231  0.356255E+00  0.152E+00    0.01       1.0  T
   8   -405.3110456 -0.366623E+00  0.348E-01    0.07       1.0  T
   9   -405.3206607 -0.961509E-02  0.324E-01    0.08       1.0  T
  10   -405.3541334 -0.334727E-01  0.250E-01    0.13       1.0  T
  11   -405.3533758  0.757618E-03  0.210E-01    0.12       1.0  T
  12   -405.3532640  0.111738E-03  0.194E-01    0.12       1.0  T
  13   -405.3543063 -0.104224E-02  0.147E-01    0.12       1.0  T
  14   -405.3545545 -0.248188E-03  0.118E-01    0.12       1.0  T
  15   -405.3547225 -0.168059E-03  0.901E-02    0.12       1.0  T
  16   -405.3548685 -0.146013E-03  0.502E-02    0.12       1.0  T
  17   -405.3548596  0.895175E-05  0.362E-02    0.12       1.0  T
  18   -405.3548782 -0.186680E-04  0.300E-02    0.12       1.0  T
  19   -405.3549000 -0.217048E-04  0.192E-02    0.12       1.0  T
  20   -405.3549025 -0.253413E-05  0.142E-02    0.12       1.0  T
  21   -405.3549026 -0.153741E-06  0.116E-02    0.11       1.0  T
  22   -405.3549043 -0.163044E-05  0.704E-03    0.11       1.0  T
  23   -405.3549048 -0.560988E-06  0.334E-03    0.11       2.0  T
  24   -405.3549049 -0.581331E-07  0.195E-03    0.11       3.4  T
  25   -405.3549050 -0.146894E-06  0.103E-03    0.11       6.5  T
  26   -405.3549051 -0.610016E-07  0.247E-04    0.11      27.2  T
  27   -405.3549051 -0.354436E-08  0.101E-04    0.11      66.4  T
     SCC iter.                  ...        0 min,  3.817 sec
     gradient                   ...        0 min,  0.416 sec
 * total energy  :  -398.8491072 Eh     change       -0.6040914E-01 Eh
   gradient norm :     0.0840807 Eh/α   predicted    -0.6266174E-01 (   3.73%)
   displ. norm   :     0.8817587 α      lambda       -0.5497631E-01
   maximum displ.:     0.4024256 α      in ANC's #25, #70, #18, ...

........................................................................
.............................. CYCLE   12 ..............................
........................................................................
   1   -405.3962222 -0.405396E+03  0.554E-01    0.15       0.0  T
   2   -405.3920904  0.413180E-02  0.760E-01    0.17       1.0  T
   3   -405.3938764 -0.178602E-02  0.313E-01    0.11       1.0  T
   4   -404.2455665  0.114831E+01  0.291E+00    0.12       1.0  T
   5   -405.2915881 -0.104602E+01  0.733E-01    0.05       1.0  T
   6   -405.3350822 -0.434940E-01  0.569E-01    0.06       1.0  T
   7   -405.3966745 -0.615924E-01  0.112E-01    0.13       1.0  T
   8   -405.3678497  0.288249E-01  0.346E-01    0.08       1.0  T
   9   -405.3983980 -0.305484E-01  0.411E-02    0.14       1.0  T
  10   -405.3988223 -0.424310E-03  0.320E-02    0.15       1.0  T
  11   -405.3987354  0.869531E-04  0.315E-02    0.14       1.0  T
  12   -405.3987746 -0.392452E-04  0.292E-02    0.14       1.0  T
  13   -405.3988390 -0.643489E-04  0.250E-02    0.15       1.0  T
  14   -405.3988486 -0.964064E-05  0.227E-02    0.15       1.0  T
  15   -405.3988487 -0.470757E-07  0.209E-02    0.15       1.0  T
  16   -405.3988476  0.101084E-05  0.192E-02    0.15       1.0  T
  17   -405.3988481 -0.429023E-06  0.160E-02    0.15       1.0  T
  18   -405.3988496 -0.152129E-05  0.120E-02    0.15       1.0  T
  19   -405.3988517 -0.211888E-05  0.817E-03    0.15       1.0  T
  20   -405.3988528 -0.111557E-05  0.453E-03    0.15       1.5  T
  21   -405.3988530 -0.170626E-06  0.191E-03    0.14       3.5  T
  22   -405.3988530 -0.180950E-07  0.430E-04    0.14      15.6  T
  23   -405.3988530 -0.210804E-08  0.892E-05    0.14      75.3  T
     SCC iter.                  ...        0 min,  3.253 sec
     gradient                   ...        0 min,  0.416 sec
 * total energy  :  -398.8964965 Eh     change       -0.4738930E-01 Eh
   gradient norm :     0.0695480 Eh/α   predicted    -0.4886020E-01 (   3.10%)
   displ. norm   :     0.8222197 α      lambda       -0.4313436E-01
   maximum displ.:     0.4342237 α      in ANC's #25, #18, #70, ...

........................................................................
.............................. CYCLE   13 ..............................
........................................................................
   1   -405.4674607 -0.405467E+03  0.546E-01    0.18       0.0  T
   2   -405.4644563  0.300441E-02  0.830E-01    0.23       1.0  T
   3   -405.4692945 -0.483821E-02  0.112E-01    0.19       1.0  T
   4   -405.4692493  0.452075E-04  0.813E-02    0.19       1.0  T
   5   -405.4174343  0.518150E-01  0.569E-01    0.08       1.0  T
   6   -405.4685832 -0.511490E-01  0.696E-02    0.17       1.0  T
   7   -405.4690477 -0.464457E-03  0.510E-02    0.17       1.0  T
   8   -405.4691214 -0.736850E-04  0.384E-02    0.17       1.0  T
   9   -405.4693667 -0.245340E-03  0.211E-02    0.18       1.0  T
  10   -405.4694153 -0.485672E-04  0.126E-02    0.18       1.0  T
  11   -405.4694028  0.124655E-04  0.121E-02    0.18       1.0  T
  12   -405.4694169 -0.140903E-04  0.949E-03    0.18       1.0  T
  13   -405.4694148  0.209457E-05  0.872E-03    0.18       1.0  T
  14   -405.4694165 -0.168587E-05  0.734E-03    0.19       1.0  T
  15   -405.4694178 -0.130473E-05  0.530E-03    0.19       1.3  T
  16   -405.4694188 -0.933978E-06  0.359E-03    0.19       1.9  T
  17   -405.4694191 -0.347346E-06  0.253E-03    0.19       2.7  T
  18   -405.4694193 -0.207601E-06  0.159E-03    0.19       4.2  T
  19   -405.4694194 -0.879037E-07  0.903E-04    0.19       7.4  T
  20   -405.4694194 -0.445015E-07  0.203E-04    0.19      33.0  T
     SCC iter.                  ...        0 min,  2.829 sec
     gradient                   ...        0 min,  0.416 sec
 * total energy  :  -398.9337574 Eh     change       -0.3726088E-01 Eh
   gradient norm :     0.0556934 Eh/α   predicted    -0.3614754E-01 (  -2.99%)
   displ. norm   :     0.8539136 α      lambda       -0.3614232E-01
   maximum displ.:     0.5092548 α      in ANC's #25, #18, #30, ...

[...]
  49:  0.00  50:  0.00  51:  0.00  52:  0.00  53:  0.00  54:  0.00  55:  0.00  56:  0.00
  57:  0.00  58:  0.00  59:  0.00  60:  0.00  61:  0.00  62:  0.00  63:  0.00  64:  0.00
  65:  0.00  66:  0.00  67:  0.00  68:  0.00  69:  0.00  70:  0.00  71:  0.00  72:  0.00
  73:  0.00  74:  0.00  75:  0.00  76:  0.00  77:  0.00  78:  0.00  79:  0.00  80:  0.00
  81:  0.00  82:  0.00  83:  0.00  84:  0.00  85:  0.00  86:  0.00  87:  0.00  88:  0.00
  89:  0.00  90:  0.00  91:  0.00  92:  0.00  93:  0.00  94:  0.00  95:  0.00  96:  0.00
  97:  0.00  98:  0.00  99:  0.00 100:  0.00 101:  0.00 102:  0.00 103:  0.00 104:  0.00
 105:  0.00 106:  0.00 107:  0.00 108:  0.00 109:  0.00 110:  0.00 111:  0.00 112:  0.00
 113:  0.00 114:  0.00 115:  0.00 116:  0.00 117:  0.00 118:  0.00 119:  0.00 120:  0.00
 121:  0.00 122:  0.00 123:  0.00 124:  0.00 125:  0.00 126:  0.00 127:  0.00 128:  0.00
 129:  0.00 130:  0.00 131:  0.00 132:  0.00 133:  0.00 134:  0.00 135:  0.00 136:  0.00
 137:  0.00 138:  0.00 139:  0.00 140:  0.00 141:  0.00 142:  0.00 143:  0.00 144:  0.00
 145:  0.00 146:  0.00 147:  0.00 148:  0.00 149:  0.00 150:  0.00 151:  0.00 152:  0.00
 153:  0.00 154:  0.00 155:  0.00 156:  0.00 157:  0.00 158:  0.00 159:  0.00 160:  0.00
 161:  0.00 162:  0.00 163:  0.00 164:  0.00 165:  0.00 166:  0.00 167:  0.00 168:  0.00
 169:  0.00 170:  0.00 171:  0.00 172:  0.00 173:  0.00 174:  0.00 175:  0.00 176:  0.00
 177:  0.00 178:  0.00 179:  0.00 180:  0.00 181:  0.00 182:  0.00 183:  0.00 184:  0.00
 185:  0.00 186:  0.00 187:  0.00 188:  0.00 189:  0.00 190:  0.00 191:  0.00 192:  0.00
 193:  0.00 194:  0.00 195:  0.00 196:  0.00 197:  0.00 198:  0.00 199:  0.00 200:  0.00
 201:  0.00 202:  0.00 203:  0.00 204:  0.00 205:  0.00 206:  0.00 207:  0.00 208:  0.00
 209:  0.00 210:  0.00 211:  0.00 212:  0.00 213:  0.00 214:  0.00 215:  0.00 216:  0.00
 217:  0.00 218:  0.00 219:  0.00 220:  0.00 221:  0.00 222:  0.00 223:  0.00 224:  0.00
 225:  0.00 226:  0.00 227:  0.00 228:  0.00 229:  0.00 230:  0.00 231:  0.00 232:  0.00
 233:  0.00 234:  0.00 235:  0.00 236:  0.00 237:  0.00 238:  0.00 239:  0.00 240:  0.00
 241:  0.00 242:  0.00 243:  0.00 244:  0.00 245:  0.00 246:  0.00 247:  0.00 248:  0.00
 249:  0.00 250:  0.00 251:  0.00 252:  0.00 253:  0.00 254:  0.00 255:  0.00 256:  0.00
 257:  0.00 258:  0.00 259:  0.00 260:  0.00 261:  0.00 262:  0.00 263:  0.00 264:  0.00
 265:  0.00 266:  0.00 267:  0.00 268:  0.00 269:  0.00 270:  0.00 271:  0.00 272:  0.00
 273:  0.00 274:  0.00 275:  0.00 276:  0.00 277:  0.00 278:  0.00 279:  0.00 280:  0.00
 281:  0.00 282:  0.00 283:  0.00 284:  0.00 285:  0.00 286:  0.00 287:  0.00 288:  0.00
 289:  0.00 290:  0.00 291:  0.00 292:  0.00 293:  0.00 294:  0.00 295:  0.00 296:  0.00
 297:  0.00 298:  0.00 299:  0.00 300:  0.00 301:  0.00 302:  0.00 303:  0.00 304:  0.00
 305:  0.00 306:  0.00 307:  0.00 308:  0.00 309:  0.00 310:  0.00 311:  0.00 312:  0.00
 313:  0.00 314:  0.00 315:  0.00 316:  0.00 317:  0.00 318:  0.00 319:  0.00 320:  0.00
 321:  0.00 322:  0.00 323:  0.00 324:  0.00 325:  0.00 326:  0.00 327:  0.00 328:  0.00
 329:  0.00 330:  0.00 331:  0.00 332:  0.00 333:  0.00 334:  0.00 335:  0.00 336:  0.00
 337:  0.00 338:  0.00 339:  0.00 340:  0.00 341:  0.00 342:  0.00 343:  0.00 344:  0.00
 345:  0.00 346:  0.00 347:  0.00 348:  0.00 349:  0.00 350:  0.00 351:  0.00 352:  0.00
 353:  0.00 354:  0.00 355:  0.00 356:  0.00 357:  0.00 358:  0.00 359:  0.00 360:  0.00
 361:  0.00 362:  0.00 363:  0.00 364:  0.00 365:  0.00 366:  0.00 367:  0.00 368:  0.00
 369:  0.00 370:  0.00 371:  0.00 372:  0.00 373:  0.00 374:  0.00 375:  0.00 376:  0.00
 377:  0.00 378:  0.00 379:  0.00 380:  0.00 381:  0.00 382:  0.00 383:  0.00 384:  0.00
 385:  0.00 386:  0.00 387:  0.00 388:  0.00 389:  0.00 390:  0.00 391:  0.00 392:  0.00
 393:  0.00 394:  0.00 395:  0.00 396:  0.00 397:  0.00 398:  0.00 399:  0.00 400:  0.00
 401:  0.00 402:  0.00 403:  0.00 404:  0.00 405:  0.00 406:  0.00 407:  0.00 408:  0.00
 409:  0.00 410:  0.00 411:  0.00 412:  0.00 413:  0.00 414:  0.00 415:  0.00 416:  0.00
 417:  0.00 418:  0.00 419:  0.00 420:  0.00 421:  0.00 422:  0.00 423:  0.00 424:  0.00
 425:  0.00 426:  0.00 427:  0.00 428:  0.00 429:  0.00 430:  0.00 431:  0.00 432:  0.00
 433:  0.00 434:  0.00 435:  0.00 436:  0.00 437:  0.00 438:  0.00 439:  0.00 440:  0.00
 441:  0.00 442:  0.00 443:  0.00 444:  0.00 445:  0.00 446:  0.00 447:  0.00 448:  0.00
 449:  0.00 450:  0.00 451:  0.00 452:  0.00 453:  0.00 454:  0.00 455:  0.00 456:  0.00
 457:  0.00 458:  0.00 459:  0.00 460:  0.00 461:  0.00 462:  0.00 463:  0.00 464:  0.00
 465:  0.00 466:  0.00 467:  0.00 468:  0.00 469:  0.00 470:  0.00 471:  0.00 472:  0.00
 473:  0.00 474:  0.00 475:  0.00 476:  0.00 477:  0.00 478:  0.00 479:  0.00 480:  0.00
 481:  0.00 482:  0.00 483:  0.00 484:  0.00 485:  0.00 486:  0.00 487:  0.00 488:  0.00
 489:  0.00 490:  0.00 491:  0.00 492:  0.00 493:  0.00 494:  0.00 495:  0.00 496:  0.00
 497:  0.00 498:  0.00 499:  0.00 500:  0.00 501:  0.00 502:  0.00 503:  0.00 504:  0.00
 505:  0.00 506:  0.00 507:  0.00 508:  0.00 509:  0.00 510:  0.00 511:  0.00 512:  0.00
 513:  0.00 514:  0.00 515:  0.00 516:  0.00 517:  0.00 518:  0.00 519:  0.00 520:  0.00
 521:  0.00 522:  0.00 523:  0.00 524:  0.00 525:  0.00 526:  0.00 527:  0.00 528:  0.00
 529:  0.00 530:  0.00 531:  0.00 532:  0.00 533:  0.00 534:  0.00 535:  0.00 536:  0.00
 537:  0.00 538:  0.00 539:  0.00 540:  0.00 541:  0.00 542:  0.00 543:  0.00 544:  0.00
 545:  0.00 546:  0.00 547:  0.00 548:  0.00 549:  0.00 550:  0.00 551:  0.00 552:  0.00
 553:  0.00 554:  0.00 555:  0.00 556:  0.00 557:  0.00 558:  0.00 559:  0.00 560:  0.00
 561:  0.00 562:  0.00 563:  0.00 564:  0.00 565:  0.00 566:  0.00 567:  0.00 568:  0.00
 569:  0.00 570:  0.00 571:  0.00 572:  0.00 573:  0.00 574:  0.00 575:  0.00 576:  0.00
 577:  0.00 578:  0.00 579:  0.00 580:  0.00 581:  0.00 582:  0.00 583:  0.00 584:  0.00
 585:  0.00 586:  0.00 587:  0.00 588:  0.00 589:  0.00 590:  0.00 591:  0.00 592:  0.00
 593:  0.00 594:  0.00 595:  0.00 596:  0.00 597:  0.00 598:  0.00 599:  0.00 600:  0.00
 601:  0.00 602:  0.00 603:  0.00 604:  0.00 605:  0.00 606:  0.00 607:  0.00 608:  0.00
 609:  0.00 610:  0.00 611:  0.00 612:  0.00 613:  0.00 614:  0.00 615:  0.00 616:  0.00
 617:  0.00 618:  0.00 619:  0.00 620:  0.00 621:  0.00 622:  0.00 623:  0.00 624:  0.00
 625:  0.00 626:  0.00 627:  0.00 628:  0.00 629:  0.00 630:  0.00 631:  0.00 632:  0.00
 633:  0.00 634:  0.00 635:  0.00 636:  0.00 637:  0.00 638:  0.00 639:  0.00 640:  0.00
 641:  0.00 642:  0.00 643:  0.00 644:  0.00 645:  0.00 646:  0.00 647:  0.00 648:  0.00
 649:  0.00 650:  0.00 651:  0.00 652:  0.00 653:  0.00 654:  0.00 655:  0.00 656:  0.00
 657:  0.00 658:  0.00 659:  0.00 660:  0.00 661:  0.00 662:  0.00 663:  0.00 664:  0.00
 665:  0.00 666:  0.00
 output can be read by thermo (or use thermo option).
 writing <g98.out> molden fake output.
 recommended (thermochemical) frequency scaling factor: 1.0
           -------------------------------------------------
          |             Thermodynamic Functions             |
           -------------------------------------------------
 symmetry recognition skipped because # atoms >         200
 inverting freq            1   1.5699287634169892     

          ...................................................
          :                      SETUP                      :
          :.................................................:
          :  # frequencies                         660      :
          :  # imaginary freq.                       0      :
          :  linear?                             false      :
          :  only rotor calc.                    false      :
          :  symmetry                               C1      :
          :  rotational number                       1      :
          :  scaling factor                  1.0000000      :
          :  rotor cutoff                   50.0000000 cm⁻¹ :
          :  imag. cutoff                  -20.0000000 cm⁻¹ :
          :.................................................:

    mode    ω/cm⁻¹     T·S(HO)/kcal·mol⁻¹    T·S(FR)/kcal·mol⁻¹   T·S(vib)
   ------------------------------------------------------------------------
       1      1.57    -3.48545 (  0.00%)    -2.08184 (100.00%)    -2.08184
       2      1.08    -3.70632 (  0.00%)    -2.19227 (100.00%)    -2.19227
       3      2.54    -3.20117 (  0.00%)    -1.93970 (100.00%)    -1.93971
       4      3.17    -3.06931 (  0.00%)    -1.87377 (100.00%)    -1.87379
       5      5.47    -2.74614 (  0.01%)    -1.71218 ( 99.99%)    -1.71232
       6      5.74    -2.71693 (  0.02%)    -1.69757 ( 99.98%)    -1.69775
       7      5.83    -2.70774 (  0.02%)    -1.69297 ( 99.98%)    -1.69316
       8      8.15    -2.50971 (  0.07%)    -1.59395 ( 99.93%)    -1.59460
       9      9.44    -2.42260 (  0.13%)    -1.55039 ( 99.87%)    -1.55150
      10     10.70    -2.34849 (  0.21%)    -1.51333 ( 99.79%)    -1.51508
      11     10.83    -2.34144 (  0.22%)    -1.50980 ( 99.78%)    -1.51163
      12     12.50    -2.25624 (  0.39%)    -1.46719 ( 99.61%)    -1.47026
      13     13.51    -2.21019 (  0.53%)    -1.44416 ( 99.47%)    -1.44822
      14     15.04    -2.14689 (  0.81%)    -1.41250 ( 99.19%)    -1.41846
      15     16.01    -2.10986 (  1.04%)    -1.39397 ( 98.96%)    -1.40141
      16     22.25    -1.91498 (  3.77%)    -1.29647 ( 96.23%)    -1.31979
      17     23.71    -1.87733 (  4.81%)    -1.27762 ( 95.19%)    -1.30647
      18     26.17    -1.81891 (  6.98%)    -1.24838 ( 93.02%)    -1.28819
      19     26.74    -1.80618 (  7.56%)    -1.24200 ( 92.44%)    -1.28464
      20     30.57    -1.72687 ( 12.26%)    -1.20228 ( 87.74%)    -1.26661
      21     30.64    -1.72546 ( 12.37%)    -1.20158 ( 87.63%)    -1.26636
      22     31.93    -1.70111 ( 14.26%)    -1.18938 ( 85.74%)    -1.26237
      23     34.41    -1.65693 ( 18.32%)    -1.16724 ( 81.68%)    -1.25697
      24     36.29    -1.62544 ( 21.73%)    -1.15146 ( 78.27%)    -1.25445
      25     37.55    -1.60538 ( 24.13%)    -1.14140 ( 75.87%)    -1.25335
      26     39.21    -1.57974 ( 27.45%)    -1.12855 ( 72.55%)    -1.25238
      27     40.32    -1.56325 ( 29.72%)    -1.12028 ( 70.28%)    -1.25195
      28     43.33    -1.52071 ( 36.07%)    -1.09894 ( 63.93%)    -1.25107
      29     43.76    -1.51492 ( 36.98%)    -1.09603 ( 63.02%)    -1.25094
      30     50.75    -1.42753 ( 51.49%)    -1.05214 ( 48.51%)    -1.24542
      31     55.81    -1.37153 ( 60.82%)    -1.02399 ( 39.18%)    -1.23536
      32     55.99    -1.36958 ( 61.13%)    -1.02301 ( 38.87%)    -1.23488
      33     57.98    -1.34909 ( 64.38%)    -1.01270 ( 35.62%)    -1.22928
      34     65.23    -1.27976 ( 74.34%)    -0.97778 ( 25.66%)    -1.20226
      35     66.49    -1.26854 ( 75.77%)    -0.97212 ( 24.23%)    -1.19671
      36     70.51    -1.23408 ( 79.82%)    -0.95473 ( 20.18%)    -1.17769
      37     71.98    -1.22192 ( 81.12%)    -0.94859 ( 18.88%)    -1.17031
      38     78.41    -1.17183 ( 85.81%)    -0.92327 ( 14.19%)    -1.13656
      39     82.10    -1.14488 ( 87.91%)    -0.90963 ( 12.09%)    -1.11644
      40     82.77    -1.14013 ( 88.25%)    -0.90722 ( 11.75%)    -1.11277
      41     93.16    -1.07113 ( 92.34%)    -0.87220 (  7.66%)    -1.05589
      42     93.49    -1.06908 ( 92.44%)    -0.87116 (  7.56%)    -1.05411
      43     94.68    -1.06172 ( 92.78%)    -0.86742 (  7.22%)    -1.04770
      44     96.65    -1.04975 ( 93.31%)    -0.86132 (  6.69%)    -1.03715
      45     99.57    -1.03242 ( 94.02%)    -0.85250 (  5.98%)    -1.02166
      46    104.58    -1.00391 ( 95.03%)    -0.83795 (  4.97%)    -0.99567
      47    108.40    -0.98309 ( 95.67%)    -0.82731 (  4.33%)    -0.97635
      48    111.98    -0.96428 ( 96.18%)    -0.81768 (  3.82%)    -0.95868
      49    119.93    -0.92470 ( 97.07%)    -0.79737 (  2.93%)    -0.92096
      50    125.20    -0.89997 ( 97.52%)    -0.78464 (  2.48%)    -0.89711
      51    125.99    -0.89633 ( 97.58%)    -0.78276 (  2.42%)    -0.89358
      52    127.22    -0.89075 ( 97.67%)    -0.77988 (  2.33%)    -0.88817
      53    127.80    -0.88817 ( 97.71%)    -0.77855 (  2.29%)    -0.88566
      54    128.41    -0.88542 ( 97.75%)    -0.77713 (  2.25%)    -0.88299
      55    128.98    -0.88286 ( 97.79%)    -0.77581 (  2.21%)    -0.88049
      56    130.47    -0.87630 ( 97.89%)    -0.77242 (  2.11%)    -0.87411
      57    134.41    -0.85926 ( 98.12%)    -0.76361 (  1.88%)    -0.85746
      58    136.60    -0.84999 ( 98.24%)    -0.75881 (  1.76%)    -0.84838
      59    139.99    -0.83601 ( 98.40%)    -0.75155 (  1.60%)    -0.83466
      60    143.56    -0.82166 ( 98.55%)    -0.74409 (  1.45%)    -0.82053
      61    178.00    -0.70043 ( 99.38%)    -0.68039 (  0.62%)    -0.70031
      62    185.03    -0.67889 ( 99.47%)    -0.66891 (  0.53%)    -0.67884
      63    185.09    -0.67872 ( 99.47%)    -0.66882 (  0.53%)    -0.67867
      64    185.32    -0.67805 ( 99.47%)    -0.66846 (  0.53%)    -0.67800
      65    185.48    -0.67756 ( 99.47%)    -0.66820 (  0.53%)    -0.67751
      66    185.93    -0.67621 ( 99.48%)    -0.66748 (  0.52%)    -0.67616
      67    186.24    -0.67528 ( 99.48%)    -0.66698 (  0.52%)    -0.67524
      68    193.95    -0.65288 ( 99.56%)    -0.65498 (  0.44%)    -0.65289
      69    204.43    -0.62399 ( 99.64%)    -0.63938 (  0.36%)    -0.62405
      70    205.50    -0.62113 ( 99.65%)    -0.63783 (  0.35%)    -0.62119
      71    206.66    -0.61805 ( 99.66%)    -0.63616 (  0.34%)    -0.61811
      72    207.38    -0.61616 ( 99.66%)    -0.63514 (  0.34%)    -0.61622
      73    207.91    -0.61478 ( 99.67%)    -0.63438 (  0.33%)    -0.61484
      74    208.39    -0.61351 ( 99.67%)    -0.63370 (  0.33%)    -0.61358
      75    208.89    -0.61220 ( 99.67%)    -0.63299 (  0.33%)    -0.61227
      76    209.47    -0.61071 ( 99.68%)    -0.63217 (  0.32%)    -0.61078
      77    209.59    -0.61038 ( 99.68%)    -0.63199 (  0.32%)    -0.61045
      78    210.05    -0.60920 ( 99.68%)    -0.63135 (  0.32%)    -0.60927
      79    210.47    -0.60809 ( 99.68%)    -0.63075 (  0.32%)    -0.60816
      80    217.59    -0.59006 ( 99.72%)    -0.62090 (  0.28%)    -0.59015
      81    223.85    -0.57475 ( 99.75%)    -0.61249 (  0.25%)    -0.57484
      82    224.32    -0.57363 ( 99.75%)    -0.61188 (  0.25%)    -0.57373
      83    224.56    -0.57305 ( 99.75%)    -0.61156 (  0.25%)    -0.57315
      84    224.66    -0.57281 ( 99.76%)    -0.61143 (  0.24%)    -0.57291
      85    224.83    -0.57241 ( 99.76%)    -0.61121 (  0.24%)    -0.57251
      86    224.87    -0.57231 ( 99.76%)    -0.61115 (  0.24%)    -0.57241
      87    225.70    -0.57033 ( 99.76%)    -0.61006 (  0.24%)    -0.57042
      88    226.05    -0.56949 ( 99.76%)    -0.60960 (  0.24%)    -0.56959
      89    226.55    -0.56830 ( 99.76%)    -0.60894 (  0.24%)    -0.56840
      90    226.58    -0.56824 ( 99.76%)    -0.60891 (  0.24%)    -0.56834
      91    226.90    -0.56747 ( 99.76%)    -0.60849 (  0.24%)    -0.56757
      92    230.78    -0.55839 ( 99.78%)    -0.60346 (  0.22%)    -0.55849
      93    235.51    -0.54757 ( 99.80%)    -0.59746 (  0.20%)    -0.54767
      94    240.40    -0.53664 ( 99.81%)    -0.59136 (  0.19%)    -0.53674
      95    245.19    -0.52621 ( 99.83%)    -0.58553 (  0.17%)    -0.52631
      96    247.01    -0.52231 ( 99.83%)    -0.58333 (  0.17%)    -0.52241
      97    247.47    -0.52132 ( 99.83%)    -0.58278 (  0.17%)    -0.52142
      98    247.98    -0.52025 ( 99.83%)    -0.58217 (  0.17%)    -0.52035
      99    248.78    -0.51855 ( 99.84%)    -0.58122 (  0.16%)    -0.51865
     100    249.17    -0.51772 ( 99.84%)    -0.58075 (  0.16%)    -0.51782
     101    249.42    -0.51719 ( 99.84%)    -0.58046 (  0.16%)    -0.51729
     102    253.10    -0.50950 ( 99.85%)    -0.57612 (  0.15%)    -0.50960
     103    254.33    -0.50697 ( 99.85%)    -0.57468 (  0.15%)    -0.50707
     104    254.71    -0.50619 ( 99.85%)    -0.57424 (  0.15%)    -0.50629
     105    254.95    -0.50570 ( 99.85%)    -0.57396 (  0.15%)    -0.50580
     106    255.62    -0.50431 ( 99.85%)    -0.57318 (  0.15%)    -0.50441
     107    256.32    -0.50289 ( 99.86%)    -0.57237 (  0.14%)    -0.50299
     108    256.59    -0.50233 ( 99.86%)    -0.57206 (  0.14%)    -0.50243
     109    259.67    -0.49612 ( 99.86%)    -0.56853 (  0.14%)    -0.49622
     110    262.70    -0.49009 ( 99.87%)    -0.56509 (  0.13%)    -0.49019
     111    272.30    -0.47154 ( 99.89%)    -0.55445 (  0.11%)    -0.47163
     112    272.69    -0.47082 ( 99.89%)    -0.55404 (  0.11%)    -0.47091
     113    275.40    -0.46572 ( 99.89%)    -0.55110 (  0.11%)    -0.46582
     114    281.67    -0.45423 ( 99.90%)    -0.54443 (  0.10%)    -0.45432
     115    281.83    -0.45394 ( 99.90%)    -0.54426 (  0.10%)    -0.45403
     116    281.93    -0.45377 ( 99.90%)    -0.54416 (  0.10%)    -0.45386
     117    282.23    -0.45323 ( 99.90%)    -0.54385 (  0.10%)    -0.45332
     118    282.89    -0.45204 ( 99.90%)    -0.54316 (  0.10%)    -0.45213
     119    284.65    -0.44887 ( 99.90%)    -0.54131 (  0.10%)    -0.44896
   ------------------------------------------------------------------------

   temp. (K)  partition function   enthalpy   heat capacity  entropy
                                   cal/mol     cal/K/mol   cal/K/mol   J/K/mol
 298.15  VIB  0.351E+67            77651.659    503.954    491.903
         ROT  0.652E+10              888.752      2.981     47.890
         INT  0.229E+77            78540.412    506.935    539.793
         TR   0.106E+30             1481.254      4.968     49.036
         TOT                       80021.6657   511.9033   588.8289  2463.6601

       T/K    H(0)-H(T)+PV         H(T)/Eh          T*S/Eh         G(T)/Eh
   ------------------------------------------------------------------------
    298.15    0.127523E+00    0.166598E+01    0.279772E+00    0.138621E+01
   ------------------------------------------------------------------------

         :::::::::::::::::::::::::::::::::::::::::::::::::::::
         ::                  THERMODYNAMIC                  ::
         :::::::::::::::::::::::::::::::::::::::::::::::::::::
         :: total free energy        -397.853693216779 Eh   ::
         ::.................................................::
         :: total energy             -399.239898857175 Eh   ::
         :: zero point energy           1.538454612075 Eh   ::
         :: G(RRHO) w/o ZPVE           -0.152248971679 Eh   ::
         :: G(RRHO) contrib.            1.386205640397 Eh   ::
         :::::::::::::::::::::::::::::::::::::::::::::::::::::

optimized geometry written to: xtbopt.xyz


           -------------------------------------------------
          | TOTAL ENERGY             -399.239898857175 Eh   |
          | TOTAL ENTHALPY           -397.573921603662 Eh   |
          | TOTAL FREE ENERGY        -397.853693216779 Eh   |
          | GRADIENT NORM               0.000549011430 Eh/α |
          | HOMO-LUMO GAP               0.241169623026 eV   |
           -------------------------------------------------

------------------------------------------------------------------------
 * finished run on 2021/11/19 at 21:49:50.507     
------------------------------------------------------------------------
 total:
 * wall-time:     0 d,  0 h, 44 min, 27.122 sec
 *  cpu-time:     0 d,  0 h, 44 min, 27.125 sec
 * ratio c/w:     1.000 speedup
 SCF:
 * wall-time:     0 d,  0 h,  0 min, 30.361 sec
 *  cpu-time:     0 d,  0 h,  0 min, 30.362 sec
 * ratio c/w:     1.000 speedup
 ANC optimizer:
 * wall-time:     0 d,  0 h,  8 min, 15.342 sec
 *  cpu-time:     0 d,  0 h,  8 min, 15.321 sec
 * ratio c/w:     1.000 speedup
 analytical hessian:
 * wall-time:     0 d,  0 h, 35 min, 41.104 sec
 *  cpu-time:     0 d,  0 h, 35 min, 41.128 sec
 * ratio c/w:     1.000 speedup

