222
 energy: -397.740781254509 gnorm: 0.876120756252 xtb: 6.4.1 (bd6e46d)
Fe       41.49456700000001    0.04686100000000   -0.01515800000000
C        43.82355800000001   -3.09993300000000    1.30753100000000
C        44.73966600000000   -2.15572500000000    1.25724900000000
C        44.32848600000000   -1.10182100000000    0.33595700000000
C        44.94735700000000    0.02252500000000   -0.01045300000000
C        44.24331400000000    1.24247300000000   -0.37455800000000
C        44.57142500000000    2.20252800000000   -1.22203200000000
C        43.53664500000001    3.21881400000000   -1.23893000000000
C        42.60037700000000    2.84235100000000   -0.39203800000000
N        43.00236800000000    1.60934000000000    0.17177900000000
C        41.33930300000001    3.48735100000000   -0.01288600000000
C        40.24408600000000    2.85256800000000    0.33787400000000
C        39.17046000000000    3.17052400000000    1.30690200000000
C        38.33289700000000    2.17377000000000    1.22973600000000
C        38.77119500000000    1.17008700000000    0.24928400000000
N        39.87613300000000    1.60894000000000   -0.23500800000000
C        38.16036000000000   -0.08318400000000   -0.16426400000000
C        38.82452000000000   -1.18769000000000   -0.41868900000000
C        38.45067200000000   -2.25063200000000   -1.37621600000000
C        39.39941900000000   -3.14438800000000   -1.28719700000000
C        40.38514300000000   -2.70693800000000   -0.30431900000000
N        40.03209700000000   -1.56113300000000    0.19247800000000
C        41.61603100000000   -3.36300800000000    0.14140200000000
C        42.73907200000000   -2.71714700000000    0.40852300000000
N        43.06767200000000   -1.46970600000000   -0.18988100000000
H        43.88382000000000   -4.00971300000000    1.92507700000000
H        45.65599300000000   -2.19567400000000    1.83529700000000
H        45.49879000000000    2.21932400000000   -1.82317500000000
H        43.55354400000001    4.12350200000000   -1.85155100000000
H        41.29158000000000    4.58215400000000   -0.01666400000000
H        39.11763900000000    4.04924900000000    1.93189400000000
H        37.42126700000000    2.13810100000000    1.84706000000000
H        37.06210900000000   -0.08027300000000   -0.26353500000000
H        37.58181600000000   -2.30309700000000   -2.02516600000000
H        39.39657300000000   -4.06069600000000   -1.88595600000000
H        41.58054900000000   -4.45881000000000    0.25332700000000
Fe       98.09973500000000   -0.00051600000000   -0.01959100000000
C        95.77074399999999    2.84627600000000    1.86391400000000
C        94.85463700000000    1.92778700000000    1.63934000000000
C        95.26581600000002    1.06309000000000    0.53852600000000
C        94.64694600000000    0.02252500000000   -0.01045300000000
C        95.35098800000000   -1.10870000000000   -0.59455600000000
C        95.02287699999999   -1.89487100000000   -1.60542300000000
C        96.05765700000001   -2.89038100000000   -1.81056300000000
C        96.99392500000000   -2.67756400000000   -0.90853300000000
N        96.59193500000001   -1.57055300000000   -0.12576100000000
C        98.25500000000000   -3.38170600000000   -0.65561900000000
C        99.35021700000001   -2.82301300000000   -0.19318600000000
C       100.42384199999999   -3.31521800000000    0.70003600000000
C       101.26140500000001   -2.32145100000000    0.80912100000000
C       100.82310800000002   -1.15330200000000    0.03188600000000
N        99.71817000000000   -1.49469400000000   -0.52541300000000
C       101.43394300000000    0.15493300000000   -0.14198400000000
C       100.76978200000002    1.28746600000000   -0.18709000000000
C       101.14363100000000    2.50959200000000   -0.93080500000000
C       100.19488400000000    3.37131900000000   -0.67752700000000
C        99.20916000000000    2.75912500000000    0.20713700000000
N        99.56220500000001    1.54104600000000    0.48274700000000
C        97.97827200000000    3.32111900000000    0.76683100000000
C        96.85523000000001    2.63691400000000    0.90949900000000
N        96.52663000000000    1.52213900000000    0.09006400000000
H        95.71048200000000    3.62570100000000    2.63951800000000
H        93.93830900000000    1.85980600000000    2.21476600000000
H        94.09551200000000   -1.79985500000000   -2.19924700000000
H        96.04075800000000   -3.66571500000000   -2.58038300000000
H        98.30272200000000   -4.45680400000000   -0.86243300000000
H       100.47666400000000   -4.29463500000000    1.15116300000000
H       102.17303600000001   -2.40092300000000    1.42234600000000
H       102.53219300000001    0.17048900000000   -0.24007100000000
H       102.01248600000000    2.68153600000000   -1.55875800000000
H       100.19773000000002    4.38280000000000   -1.09590400000000
H        98.01375400000001    4.37713500000000    1.08010000000000
C        47.56180500000000    0.02252500000000   -0.01045300000000
C        48.77801000000000    0.02252500000000   -0.01045300000000
C        58.37542700000000    0.02252500000000   -0.01045300000000
C        59.59163200000000    0.02252500000000   -0.01045300000000
C        69.18904900000000    0.02252500000000   -0.01045300000000
C        70.40525400000000    0.02252500000000   -0.01045300000000
C        80.00266999999999    0.02252500000000   -0.01045300000000
C        81.21887599999999    0.02252500000000   -0.01045300000000
C        90.81629200000000    0.02252500000000   -0.01045300000000
C        92.03249800000002    0.02252500000000   -0.01045300000000
Fe       53.60821400000000    0.03532600000000    0.00303200000000
C        51.32840400000000   -3.22612100000000   -0.90663300000000
C        50.37219400000001   -2.32677100000000   -1.00866000000000
C        50.76456900000000   -1.16446600000000   -0.20614400000000
C        50.12945200000001   -0.01319300000000    0.00612200000000
C        50.81490900000001    1.26140600000000    0.23235200000000
C        50.47961900000001    2.34000600000000    0.93659200000000
C        51.50416000000000    3.35932300000000    0.84601000000000
C        52.45475700000000    2.86239800000000    0.07264600000000
N        52.07776300000000    1.54579300000000   -0.34349700000000
C        53.70189700000000    3.47410000000000   -0.34422000000000
C        54.80344900000000    2.80684300000000   -0.67599100000000
C        55.79699500000000    3.05882700000000   -1.71016100000000
C        56.69087800000000    2.09796800000000   -1.60867700000000
C        56.31118000000000    1.18608400000000   -0.50470000000000
N        55.21626500000000    1.63540300000000    0.00266700000000
C        56.96838700000000   -0.01319300000000    0.00612200000000
C        56.34497600000000   -1.08237500000000    0.46763900000000
C        56.72368800000000   -2.01449100000000    1.54311500000000
C        55.78302000000001   -2.92863700000000    1.62898100000000
C        54.77471800000000   -2.63285800000000    0.63155400000000
N        55.11249300000000   -1.57948000000000   -0.01774100000000
C        53.52232500000000   -3.33986500000000    0.30036000000000
C        52.40844800000000   -2.74316800000000   -0.04698100000000
N        52.02633600000000   -1.46041100000000    0.37070200000000
H        51.32874800000000   -4.21719500000000   -1.39786800000000
H        49.46366000000000   -2.44846500000000   -1.58980800000000
H        49.55476700000000    2.45835800000000    1.51351800000000
H        51.53145500000000    4.34848700000000    1.30266100000000
H        53.78783700000000    4.57147800000000   -0.40624300000000
H        55.82966700000000    3.86504300000000   -2.43698500000000
H        57.58394000000000    1.98500000000000   -2.24245100000000
H        57.63843900000001   -1.94008400000000    2.15328500000000
H        55.80206600000001   -3.74224500000000    2.33724800000000
H        53.56081000000000   -4.43982400000000    0.35939700000000
Fe       64.42183600000000    0.03532600000000    0.00303200000000
C        62.14202600000001   -3.22612100000000   -0.90663300000000
C        61.18581600000000   -2.32677100000000   -1.00866000000000
C        61.57819000000000   -1.16446600000000   -0.20614400000000
C        60.94307400000001   -0.01319300000000    0.00612200000000
C        61.62853100000000    1.26140600000000    0.23235200000000
C        61.29324100000001    2.34000600000000    0.93659200000000
C        62.31778200000000    3.35932300000000    0.84601000000000
C        63.26837900000000    2.86239800000000    0.07264600000000
N        62.89138500000000    1.54579300000000   -0.34349700000000
C        64.51551900000000    3.47410000000000   -0.34422000000000
C        65.61707100000000    2.80684300000000   -0.67599100000000
C        66.61061700000000    3.05882700000000   -1.71016100000000
C        67.50449999999999    2.09796800000000   -1.60867700000000
C        67.12480200000000    1.18608400000000   -0.50470000000000
N        66.02988700000000    1.63540300000000    0.00266700000000
C        67.78200900000000   -0.01319300000000    0.00612200000000
C        67.15859800000000   -1.08237500000000    0.46763900000000
C        67.53731000000001   -2.01449100000000    1.54311500000000
C        66.59664200000000   -2.92863700000000    1.62898100000000
C        65.58834000000000   -2.63285800000000    0.63155400000000
N        65.92611500000000   -1.57948000000000   -0.01774100000000
C        64.33594700000000   -3.33986500000000    0.30036000000000
C        63.22207000000000   -2.74316800000000   -0.04698100000000
N        62.83995800000001   -1.46041100000000    0.37070200000000
H        62.14237000000000   -4.21719500000000   -1.39786800000000
H        60.27728200000000   -2.44846500000000   -1.58980800000000
H        60.36838900000001    2.45835800000000    1.51351800000000
H        62.34507700000000    4.34848700000000    1.30266100000000
H        64.60145900000001    4.57147800000000   -0.40624300000000
H        66.64328900000000    3.86504300000000   -2.43698500000000
H        68.39756199999999    1.98500000000000   -2.24245100000000
H        68.45206000000000   -1.94008400000000    2.15328500000000
H        66.61568800000001   -3.74224500000000    2.33724800000000
H        64.37443100000000   -4.43982400000000    0.35939700000000
Fe       75.23545800000001    0.03532600000000    0.00303200000000
C        72.95564700000000   -3.22612100000000   -0.90663300000000
C        71.99943800000001   -2.32677100000000   -1.00866000000000
C        72.39181200000000   -1.16446600000000   -0.20614400000000
C        71.75669600000001   -0.01319300000000    0.00612200000000
C        72.44215300000000    1.26140600000000    0.23235200000000
C        72.10686300000000    2.34000600000000    0.93659200000000
C        73.13140400000002    3.35932300000000    0.84601000000000
C        74.08200100000001    2.86239800000000    0.07264600000000
N        73.70500699999999    1.54579300000000   -0.34349700000000
C        75.32914100000001    3.47410000000000   -0.34422000000000
C        76.43069199999999    2.80684300000000   -0.67599100000000
C        77.42423900000000    3.05882700000000   -1.71016100000000
C        78.31812200000000    2.09796800000000   -1.60867700000000
C        77.93842400000000    1.18608400000000   -0.50470000000000
N        76.84350900000000    1.63540300000000    0.00266700000000
C        78.59563100000000   -0.01319300000000    0.00612200000000
C        77.97221900000001   -1.08237500000000    0.46763900000000
C        78.35093200000000   -2.01449100000000    1.54311500000000
C        77.41026300000000   -2.92863700000000    1.62898100000000
C        76.40196200000000   -2.63285800000000    0.63155400000000
N        76.73973700000001   -1.57948000000000   -0.01774100000000
C        75.14956900000000   -3.33986500000000    0.30036000000000
C        74.03569200000000   -2.74316800000000   -0.04698100000000
N        73.65358000000001   -1.46041100000000    0.37070200000000
H        72.95599199999999   -4.21719500000000   -1.39786800000000
H        71.09090399999999   -2.44846500000000   -1.58980800000000
H        71.18201100000000    2.45835800000000    1.51351800000000
H        73.15869900000000    4.34848700000000    1.30266100000000
H        75.41508100000000    4.57147800000000   -0.40624300000000
H        77.45691100000001    3.86504300000000   -2.43698500000000
H        79.21118400000000    1.98500000000000   -2.24245100000000
H        79.26568200000000   -1.94008400000000    2.15328500000000
H        77.42931000000000   -3.74224500000000    2.33724800000000
H        75.18805300000000   -4.43982400000000    0.35939700000000
Fe       86.04908000000002    0.03532600000000    0.00303200000000
C        83.76926899999999   -3.22612100000000   -0.90663300000000
C        82.81306000000001   -2.32677100000000   -1.00866000000000
C        83.20543400000001   -1.16446600000000   -0.20614400000000
C        82.57031800000001   -0.01319300000000    0.00612200000000
C        83.25577500000000    1.26140600000000    0.23235200000000
C        82.92048400000000    2.34000600000000    0.93659200000000
C        83.94502600000000    3.35932300000000    0.84601000000000
C        84.89562300000000    2.86239800000000    0.07264600000000
N        84.51862900000000    1.54579300000000   -0.34349700000000
C        86.14276300000000    3.47410000000000   -0.34422000000000
C        87.24431400000000    2.80684300000000   -0.67599100000000
C        88.23786100000000    3.05882700000000   -1.71016100000000
C        89.13174400000001    2.09796800000000   -1.60867700000000
C        88.75204600000001    1.18608400000000   -0.50470000000000
N        87.65713100000001    1.63540300000000    0.00266700000000
C        89.40925300000001   -0.01319300000000    0.00612200000000
C        88.78584100000000   -1.08237500000000    0.46763900000000
C        89.16455400000001   -2.01449100000000    1.54311500000000
C        88.22388500000000   -2.92863700000000    1.62898100000000
C        87.21558400000001   -2.63285800000000    0.63155400000000
N        87.55335900000000   -1.57948000000000   -0.01774100000000
C        85.96319100000001   -3.33986500000000    0.30036000000000
C        84.84931400000001   -2.74316800000000   -0.04698100000000
N        84.46720200000001   -1.46041100000000    0.37070200000000
H        83.76961400000000   -4.21719500000000   -1.39786800000000
H        81.90452600000000   -2.44846500000000   -1.58980800000000
H        81.99563200000000    2.45835800000000    1.51351800000000
H        83.97232099999999    4.34848700000000    1.30266100000000
H        86.22870300000001    4.57147800000000   -0.40624300000000
H        88.27053300000000    3.86504300000000   -2.43698500000000
H        90.02480500000001    1.98500000000000   -2.24245100000000
H        90.07930399999999   -1.94008400000000    2.15328500000000
H        88.24293200000000   -3.74224500000000    2.33724800000000
H        86.00167500000001   -4.43982400000000    0.35939700000000
222
 energy: -398.061842644699 gnorm: 0.494545459073 xtb: 6.4.1 (bd6e46d)
Fe       41.50457714361472    0.04508370799694   -0.01489130207017
C        43.82440202787509   -3.10886095751230    1.30053114520243
C        44.75528172205830   -2.15602915531494    1.25428580364273
C        44.32889181216503   -1.10578810562096    0.34079604278033
C        44.93840375903998    0.04355570651115   -0.00880734557697
C        44.23350552350833    1.23835372840421   -0.36660243909132
C        44.58373284172969    2.23036563111198   -1.24078685387007
C        43.56696953493867    3.22156629028897   -1.25305785089216
C        42.59492601198190    2.81988816993142   -0.38482194537071
N        42.98126207377108    1.58959472077243    0.17444153225380
C        41.35883837703682    3.48647240048777   -0.01353744076640
C        40.23276528529137    2.83795232733862    0.33891908589729
C        39.17136290893511    3.17845573063893    1.29147231440840
C        38.30680911603918    2.16679449775298    1.23347289840438
C        38.76410836068738    1.17162284952569    0.26531315717950
N        39.90766842633489    1.59211584050512   -0.21918925088478
C        38.14797693379850   -0.06123650406302   -0.15716428320732
C        38.82783772259239   -1.19204011797963   -0.42431405630627
C        38.44244446887190   -2.25038833110687   -1.36374926413711
C        39.40648587023257   -3.16619605424985   -1.28524820182315
C        40.39406749760744   -2.71882724706938   -0.31250132032348
N        40.04094696852283   -1.54096818789350    0.17011763983478
C        41.59831460078833   -3.36976900400704    0.13332197791469
C        42.74611238311041   -2.70184602041946    0.41167703086661
N        43.06273794084038   -1.46449451831350   -0.16274776122910
H        43.87580059677363   -4.00468168827940    1.91757160894852
H        45.66108444066993   -2.18691062847878    1.83308635258446
H        45.49687485271697    2.22807230127721   -1.82532382014225
H        43.56039693502182    4.12056349161614   -1.85325064103706
H        41.30718382078727    4.57796735856783   -0.01053201096331
H        39.12421550280510    4.04796624872980    1.92609413644177
H        37.41642041058767    2.12943599592770    1.84638361001795
H        37.06329273731561   -0.07226804702059   -0.26830365987318
H        37.58352915541387   -2.29417918484391   -2.01795306384702
H        39.40682924349829   -4.06514172851373   -1.88295695676240
H        41.57619836685512   -4.45485423177286    0.25312487482684
Fe       98.08970553759451    0.00123665624121   -0.01904118276631
C        95.76990945436761    2.85634177356035    1.85869619291614
C        94.83909877367374    1.92860783768015    1.63650500200331
C        95.26566497413486    1.06605715979347    0.54410322490101
C        94.65703878865476    0.00132762743851   -0.01232395932449
C        95.36102846228142   -1.10607059926440   -0.58591230841069
C        95.01064500834028   -1.91874030042453   -1.62900571059478
C        96.02726899186531   -2.89042147508788   -1.82495237184404
C        96.99941724434287   -2.65677342793530   -0.89724733726372
N        96.61318045421052   -1.55177308060158   -0.11937053858244
C        98.23546862588591   -3.38072609666907   -0.65611856611956
C        99.36153780639783   -2.80882135411813   -0.18946079616292
C       100.42293394973919   -3.32013385924513    0.68342331593988
C       101.28750671867523   -2.31529897108505    0.81405583165061
C       100.83017628579316   -1.15776549808392    0.04733377492354
N        99.68661361760962   -1.48112200968860   -0.50677925540104
C       101.44630836433325    0.13203563705820   -0.13906994310479
C       100.76643273195504    1.29278968971689   -0.19181534619516
C       101.15185481218136    2.50703553054926   -0.91861083543431
C       100.18780519566953    3.39238209424245   -0.67159505696108
C        99.20023762526242    2.77231546660692    0.20128357739412
N        99.55337288812072    1.52540818259187    0.45707689530392
C        97.99597561734959    3.32927339233487    0.76015036757757
C        96.84821170095834    2.62128880589130    0.90974024550130
N        96.53178086530664    1.51195452190549    0.11570262273272
H        95.71849553059839    3.62215856755084    2.63120299538840
H        93.93324909866107    1.85161358904544    2.21094946033958
H        94.09745109790109   -1.80804028547467   -2.20299605352323
H        96.03389885921352   -3.66249731083825   -2.58153357746470
H        98.28711960510378   -4.45383331974413   -0.85565755666419
H       100.47009567853929   -4.29230322576415    1.14569469260436
H       102.17788593281540   -2.39228317065197    1.42328195839163
H       102.53100043391865    0.16350332617757   -0.24623888236059
H       102.01077603374556    2.67143418135602   -1.55333018773729
H       100.18747650924311    4.38661793421449   -1.09213852833685
H        98.01809429267898    4.37329415201850    1.07916814285403
C        47.52975671583903    0.02145517398089   -0.01100440660770
C        48.75117920073451    0.03081873453073   -0.01321603011201
C        58.37239060239646    0.02925802366872   -0.00886814376733
C        59.58495705368813    0.03021753038884   -0.01225790860034
C        69.18587897492726    0.02930798531741   -0.00853927471143
C        70.39863457508467    0.03025122214861   -0.01221133808056
C        79.99941438471895    0.02931301261823   -0.00841129960930
C        81.21226574903595    0.03023933549364   -0.01219981958087
C        90.83732962022788    0.02933235998944   -0.00671585083149
C        92.05778587226841    0.02221841983556   -0.01063816546839
Fe       53.60051825514595    0.03745319742323    0.00124819106988
C        51.32897550917486   -3.24395549622558   -0.90100183946484
C        50.36490202394888   -2.32662016236504   -1.00065495269549
C        50.78486801607613   -1.17766471675860   -0.20938040420964
C        50.13672906997479    0.00636131425511    0.00415188314152
C        50.84037447750759    1.26406198465533    0.22910165156536
C        50.46976938537106    2.36674852293955    0.94898816439879
C        51.47912003124556    3.36129303659356    0.85431300991223
C        52.46457240214877    2.84227390141287    0.06791518807124
N        52.09897003545996    1.53320183260297   -0.33354666792559
C        53.68720727454689    3.47372060479352   -0.34555615649783
C        54.81301894740624    2.79552407547309   -0.67700323866459
C        55.80385365066059    3.06646673542080   -1.69853048513347
C        56.71204134845797    2.08666744877671   -1.60819363893060
C        56.31526240662610    1.18625827583939   -0.52036647728529
N        55.18598245059661    1.62019335998803   -0.01224106278536
C        56.97810578159591    0.00479901859244   -0.00297557082183
C        56.33274368479429   -1.09517286662599    0.47531751252398
C        56.73611309616363   -2.01332619146887    1.53394270110616
C        55.77949040210974   -2.94535208537663    1.62878265957347
C        54.76461607761296   -2.64223254852232    0.64090946956174
N        55.10013979089985   -1.54805720043186   -0.00805078845320
C        53.54289787205370   -3.34699570844646    0.31057401463416
C        52.39542659548293   -2.73060367120685   -0.05455992422775
N        52.03657298688925   -1.44948741174476    0.34239146619476
H        51.33349889293574   -4.21408799250092   -1.39434890786182
H        49.46398920555438   -2.43891331257891   -1.58548244958993
H        49.55373234739027    2.46293719518486    1.51500502725507
H        51.52066873942113    4.34313913982044    1.30520302963651
H        53.77085114976467    4.56532508060184   -0.41174860161163
H        55.82281788877077    3.86356356348488   -2.42931087952798
H        57.58500911708269    1.97871122892129   -2.23957868030948
H        57.63333429101490   -1.93512450785862    2.14525168074347
H        55.79505276332235   -3.74853897050825    2.33821795495528
H        53.56659169496428   -4.43706725400433    0.35742812144519
Fe       64.41425124240246    0.03725580074769    0.00180313864867
C        62.14208292397070   -3.24452520577375   -0.90105621284433
C        61.17866564521985   -2.32735298519946   -1.00040148332625
C        61.60092925506498   -1.17944601400247   -0.20740230826528
C        60.95547666943524    0.00588992635044    0.00455187737242
C        61.65607854785913    1.26581946080703    0.22832256593695
C        61.28378607238099    2.36684870436095    0.94888846745353
C        62.29275250172316    3.36175214253145    0.85417033901326
C        63.27831585069308    2.84280533736389    0.06772730602989
N        62.91316559981338    1.53386682557824   -0.33336604564872
C        64.50079535877236    3.47375130403858   -0.34531299341295
C        65.62688871290180    2.79549774314352   -0.67695968520441
C        66.61744358256105    3.06651657267401   -1.69863447793856
C        67.52568775525374    2.08668250339841   -1.60835175324677
C        67.12861679052715    1.18660720578666   -0.52057910207524
N        65.99976399704300    1.62021572463615   -0.01267646593044
C        67.79178114154024    0.00450259196006   -0.00276442335498
C        67.14666167708336   -1.09536885742464    0.47513540377225
C        67.55003063276334   -2.01346514610265    1.53397261115610
C        66.59318275678932   -2.94510361869458    1.62909479129329
C        65.57862539395040   -2.64149325346119    0.64111758936964
N        65.91383547339304   -1.54850846120576   -0.00803187980655
C        64.35596582138045   -3.34709215064084    0.30998179446749
C        63.20963790169247   -2.73112803402583   -0.05436494994191
N        62.85073042148260   -1.44986896327978    0.34218341726308
H        62.14694058890598   -4.21429174087890   -1.39449222701994
H        60.27772691799328   -2.43897157125273   -1.58557631334706
H        60.36749285323899    2.46282725239267    1.51508683659855
H        62.33424868510970    4.34331538987224    1.30525362034221
H        64.58452055495334    4.56536571709684   -0.41168108529182
H        66.63645801263232    3.86360767558830   -2.42932722143670
H        68.39864779269003    1.97871842591815   -2.23960369400745
H        68.44706213762855   -1.93517234920815    2.14528776135648
H        66.60866446411939   -3.74847182229507    2.33827433337539
H        64.38027202376936   -4.43711602394053    0.35685340677964
Fe       75.22786125676890    0.03722975596133    0.00180151052448
C        72.95557789862346   -3.24458636642386   -0.90103744357404
C        71.99232174229083   -2.32746673967656   -1.00044316428390
C        72.41460738100915   -1.17943840698467   -0.20726010169112
C        71.76903087364607    0.00585635886474    0.00448227154591
C        72.46968532577530    1.26594543717297    0.22827248808029
C        72.09743988996844    2.36683681820727    0.94893109075598
C        73.10636818650747    3.36177164941240    0.85415669899950
C        74.09193990288372    2.84281529296762    0.06770575758071
N        73.72674715517519    1.53387709873444   -0.33336714388304
C        75.31438848996537    3.47372598547180   -0.34526496552555
C        76.44055422829378    2.79550817440557   -0.67694084688978
C        77.43104173505067    3.06652812065144   -1.69865061393052
C        78.33929673926801    2.08667160783344   -1.60838425036619
C        77.94214767247057    1.18666130081273   -0.52064912963365
N        76.81346355110098    1.62022413430509   -0.01271243774172
C        78.60548346479067    0.00441458966606   -0.00270163693161
C        77.96041580183059   -1.09542207655471    0.47510435536314
C        78.36373338698829   -2.01346101042215    1.53393316344172
C        77.40677847752956   -2.94502232978965    1.62916014297255
C        76.39237469591710   -2.64129488313811    0.64120710056413
N        76.72746434668524   -1.54862686100410   -0.00800153616724
C        75.16936896520548   -3.34709973991822    0.30983668698535
C        74.02333154381780   -2.73119280182959   -0.05425776288604
N        73.66426867970233   -1.44976845925163    0.34221903210177
H        72.96052932403535   -4.21431455683993   -1.39450799074145
H        71.09136023603872   -2.43899588723229   -1.58562192837254
H        71.18111447723878    2.46283674090060    1.51511229797086
H        73.14786456448806    4.34333078089961    1.30524897160625
H        75.39812976658105    4.56535795468896   -0.41169472668748
H        77.45008239104533    3.86362056119785   -2.42932745073115
H        79.21226486495034    1.97871406273363   -2.23959334573440
H        79.26071035669750   -1.93517729616842    2.14527311998116
H        77.42226906999628   -3.74844901325282    2.33827775833805
H        75.19389832470576   -4.43712098935186    0.35665722526797
Fe       86.04139008383100    0.03753427125509    0.00133889993022
C        83.76905572837229   -3.24469159222795   -0.90086027951140
C        82.80607338290774   -2.32752794281177   -1.00043548029746
C        83.22832537106146   -1.17925342308836   -0.20725004474350
C        82.58256935141000    0.00581763159377    0.00444032438798
C        83.28312685344214    1.26595428058452    0.22832412759649
C        82.91105903139238    2.36671242478562    0.94886630174181
C        83.92011987668243    3.36171408560473    0.85417888647479
C        84.90570392113639    2.84289461178737    0.06775245882010
N        84.54031107137391    1.53393849623464   -0.33349993949120
C        86.12811666977738    3.47353484248194   -0.34510242740464
C        87.25450896371684    2.79499713087801   -0.67660404001254
C        88.24468975116912    3.06619421702143   -1.69859636623103
C        89.15311014238770    2.08652465381942   -1.60874118849805
C        88.75735204239089    1.18441597236778   -0.52207185782025
N        87.62836474879849    1.61942075711679   -0.01222920326056
C        89.42407065050463    0.00392340965820   -0.00279391608417
C        88.77682832251510   -1.09317048396186    0.47532869436967
C        89.17772166335169   -2.01330040879160    1.53398958122396
C        88.22046029426598   -2.94431103265651    1.62920734358096
C        87.20659497843793   -2.64023093536199    0.64114902444349
N        87.54130346829425   -1.54792945956140   -0.00776274381825
C        85.98268119481169   -3.34710315342060    0.30938018025527
C        84.83717154909823   -2.73152105186816   -0.05397378960275
N        84.47792329330585   -1.44953795079025    0.34247310270966
H        83.77413234488442   -4.21432905582488   -1.39451149557183
H        81.90504252279689   -2.43898442822226   -1.58564788996819
H        81.99473821994529    2.46281006257141    1.51509940622968
H        83.96147623789308    4.34336208329083    1.30518352887295
H        86.21182565434783    4.56525164042329   -0.41172975188619
H        88.26364794741266    3.86354227994844   -2.42923531035072
H        90.02599871682217    1.97873806600376   -2.23966290277743
H        90.07449420052870   -1.93530897766214    2.14524656849570
H        88.23581110418726   -3.74821703408937    2.33815747514755
H        86.00765777093352   -4.43710874534636    0.35614777698817
222
 energy: -398.255798431989 gnorm: 0.208453930910 xtb: 6.4.1 (bd6e46d)