 Entering Gaussian System
 *********************************************
 Gaussian 98:
 frequency output generated by the xtb code
 *********************************************
                         Standard orientation:
 --------------------------------------------------------------------
  Center     Atomic     Atomic              Coordinates (Angstroms)
  Number     Number      Type              X           Y           Z
 --------------------------------------------------------------------
    1          6             0      -18.317242   -2.795564    1.957917
    2          6             0      -17.207154   -2.158402    1.537711
    3          6             0      -17.662844   -0.915153    0.941284
    4          6             0      -16.791417    0.034101    0.376937
    5          6             0      -17.202159    1.244118   -0.203135
    6          6             0      -16.374965    2.243017   -0.784668
    7          6             0      -17.189302    3.248534   -1.218532
    8          6             0      -18.531496    2.885903   -0.912410
    9          7             0      -18.486729    1.669659   -0.301549
   10          6             0      -19.670768    3.628988   -1.183009
   11          6             0      -20.985022    3.289580   -0.892931
   12          6             0      -22.111244    4.150629   -1.224572
   13          6             0      -23.214475    3.505217   -0.803327
   14          6             0      -22.753505    2.255557   -0.217962
   15          7             0      -21.409050    2.160531   -0.288558
   16          6             0      -23.609978    1.308546    0.329315
   17          6             0      -23.221822    0.105746    0.898647
   18          6             0      -24.050963   -0.900702    1.472140
   19          6             0      -23.239383   -1.904935    1.909571
   20          6             0      -21.893234   -1.538905    1.615161
   21          7             0      -21.936243   -0.323870    1.007661
   22          6             0      -20.752458   -2.275938    1.894414
   23          6             0      -19.437035   -1.935101    1.613290
   24          7             0      -19.001770   -0.808787    1.001957
   25          1             0      -18.405591   -3.744687    2.450782
   26          1             0      -16.180834   -2.463604    1.606633
   27          1             0      -15.305977    2.186584   -0.853332
   28          1             0      -16.898383    4.158980   -1.705355
   29          1             0      -19.285421    1.145443    0.036370
   30          1             0      -19.514563    4.578573   -1.675937
   31          1             0      -22.027866    5.104284   -1.709871
   32          1             0      -24.242169    3.808523   -0.864066
   33          1             0      -24.667833    1.527483    0.309631
   34          1             0      -25.120654   -0.849512    1.534334
   35          1             0      -23.531269   -2.817809    2.391712
   36          1             0      -21.139484    0.205941    0.675582
   37          1             0      -20.906471   -3.225846    2.387624
   38          6             0       17.989972   -1.789139   -2.551042
   39          6             0       16.955945   -1.161679   -1.957592
   40          6             0       17.544129   -0.155930   -1.090944
   41          6             0       16.777683    0.716331   -0.292318
   42          6             0       17.318491    1.709670    0.541187
   43          6             0       16.606011    2.630204    1.355250
   44          6             0       17.525987    3.414441    1.989716
   45          6             0       18.819978    2.987770    1.578727
   46          7             0       18.641553    1.959041    0.704081
   47          6             0       20.034645    3.513075    1.994346
   48          6             0       21.304555    3.099843    1.616182
   49          6             0       22.518208    3.718765    2.129580
   50          6             0       23.545180    3.063462    1.557636
   51          6             0       22.950901    2.051819    0.697479
   52          7             0       21.603484    2.102697    0.757990
   53          6             0       23.699558    1.170187   -0.072018
   54          6             0       23.182454    0.197003   -0.913165
   55          6             0       23.896663   -0.725576   -1.730116
   56          6             0       22.979574   -1.488692   -2.390251
   57          6             0       21.681714   -1.053692   -1.992744
   58          7             0       21.857241   -0.039955   -1.104862
   59          6             0       20.466315   -1.565222   -2.422955
   60          6             0       19.196421   -1.162587   -2.037550
   61          7             0       18.885266   -0.178625   -1.159659
   62          1             0       17.974391   -2.592920   -3.261813
   63          1             0       15.902799   -1.331872   -2.070444
   64          1             0       15.537240    2.675618    1.433769
   65          1             0       17.336694    4.213985    2.679225
   66          1             0       19.377702    1.443088    0.236208
   67          1             0       19.983285    4.333676    2.696578
   68          1             0       22.539191    4.534180    2.827126
   69          1             0       24.600190    3.218868    1.678517
   70          1             0       24.775306    1.251578   -0.012888
   71          1             0       24.965772   -0.785411   -1.794343
   72          1             0       23.169849   -2.281068   -3.088018
   73          1             0       21.123079    0.480510   -0.640115
   74          1             0       20.515821   -2.375047   -3.137868
   75          6             0      -15.416414   -0.233070    0.387216
   76          6             0      -14.217911   -0.446552    0.389739
   77          6             0      -12.889319   -0.650377    0.393151
   78          6             0      -11.682753   -0.813030    0.379695
   79          6             0       -1.890896   -1.230060   -0.095712
   80          6             0       -0.674524   -1.173082   -0.151051
   81          6             0        0.662566   -1.084519   -0.198332
   82          6             0        1.876137   -0.976176   -0.238513
   83          6             0       11.630059    0.190338   -0.332773
   84          6             0       12.842042    0.320828   -0.338380
   85          6             0       14.175098    0.463947   -0.333203
   86          6             0       15.387650    0.587008   -0.321094
   87          6             0       -9.515473   -2.306891   -2.871793
   88          6             0      -10.433571   -1.887117   -1.979516
   89          6             0       -9.686163   -1.456740   -0.812117
   90          6             0      -10.291049   -0.957534    0.356466
   91          6             0       -9.577070   -0.574912    1.502723
   92          6             0      -10.100586   -0.095633    2.732569
   93          6             0       -9.041227    0.152101    3.557681
   94          6             0       -7.849409   -0.164233    2.846859
   95          7             0       -8.225254   -0.603682    1.614705
   96          6             0       -6.552028   -0.024931    3.320141
   97          6             0       -5.363501   -0.278474    2.654436
   98          6             0       -4.065599   -0.043717    3.264670
   99          6             0       -3.145684   -0.370295    2.336005
  100          6             0       -3.893398   -0.810110    1.172367
  101          7             0       -5.217190   -0.744615    1.390674
  102          6             0       -3.283964   -1.258437   -0.017121
  103          6             0       -4.000288   -1.724835   -1.131890
  104          6             0       -3.478301   -2.221691   -2.354760
  105          6             0       -4.540311   -2.552508   -3.147178
  106          6             0       -5.732114   -2.259074   -2.426725
  107          7             0       -5.353406   -1.767110   -1.215003
  108          6             0       -7.030246   -2.425157   -2.888770
  109          6             0       -8.218270   -2.119141   -2.243097
  110          7             0       -8.363031   -1.607156   -0.998263
  111          1             0       -9.664215   -2.701411   -3.858591
  112          1             0      -11.502746   -1.861185   -2.064891
  113          1             0      -11.144137    0.034806    2.943577
  114          1             0       -9.071641    0.522811    4.563763
  115          1             0       -7.615101   -0.909403    0.864534
  116          1             0       -6.459596    0.344452    4.332558
  117          1             0       -3.917443    0.323823    4.261878
  118          1             0       -2.075327   -0.335584    2.398319
  119          1             0       -2.433968   -2.309170   -2.583273
  120          1             0       -4.511382   -2.958101   -4.139779
  121          1             0       -5.962694   -1.461639   -0.463987
  122          1             0       -7.123902   -2.830603   -3.887223
  123          6             0        3.990235    1.666726    2.207149
  124          6             0        3.089537    0.903456    1.557874
  125          6             0        3.851711    0.097159    0.622308
  126          6             0        3.263694   -0.830556   -0.261617
  127          6             0        3.996121   -1.612858   -1.170124
  128          6             0        3.497617   -2.571709   -2.089983
  129          6             0        4.569773   -3.093024   -2.756669
  130          6             0        5.743867   -2.462611   -2.257903
  131          7             0        5.345351   -1.577114   -1.303663
  132          6             0        7.045607   -2.713068   -2.670450
  133          6             0        8.218599   -2.127225   -2.222266
  134          6             0        9.522018   -2.494878   -2.749717
  135          6             0       10.422916   -1.732912   -2.099014
  136          6             0        9.658275   -0.908458   -1.181751
  137          7             0        8.343230   -1.165890   -1.275502
  138          6             0       10.243502    0.037370   -0.316047
  139          6             0        9.508004    0.837374    0.575323
  140          6             0       10.004609    1.812490    1.478896
  141          6             0        8.932951    2.331668    2.148074
  142          6             0        7.761258    1.683750    1.666890
  143          7             0        8.160114    0.792743    0.717967
  144          6             0        6.461625    1.918818    2.094763
  145          6             0        5.291031    1.317874    1.661133
  146          7             0        5.165508    0.363682    0.707170
  147          1             0        3.827083    2.396626    2.976629
  148          1             0        2.023594    0.865042    1.671961
  149          1             0        2.461434   -2.819816   -2.213466
  150          1             0        4.558446   -3.843768   -3.522737
  151          1             0        5.938219   -0.966172   -0.752346
  152          1             0        7.155307   -3.463045   -3.442253
  153          1             0        9.686575   -3.235057   -3.509053
  154          1             0       11.490390   -1.704885   -2.201914
  155          1             0       11.039419    2.070903    1.591818
  156          1             0        8.943169    3.091358    2.905247
  157          1             0        7.568489    0.169809    0.178872
  158          1             0        6.351797    2.668529    2.866743
 --------------------------------------------------------------------
     1 basis functions        1 primitive gaussians
     1 alpha electrons        1 beta electrons

 Harmonic frequencies (cm**-1), IR intensities (km*mol⁻¹),
 Raman scattering activities (A**4/amu), Raman depolarization ratios,
 reduced masses (AMU), force constants (mDyne/A) and normal coordinates:
                      1                      2                      3
                        a                      a                      a 
 Frequencies --    -2.4855                -1.9970                 4.3352
 Red. masses --    11.2905                11.7722                11.7442
 Frc consts  --     0.0000                 0.0000                 0.0000
 IR Inten    --     3.3898                13.3369                11.2943
 Raman Activ --     0.0000                 0.0000                 0.0000
 Depolar     --     0.0000                 0.0000                 0.0000
 Atom AN      X      Y      Z        X      Y      Z        X      Y      Z
   1   6    -0.03  -0.08  -0.20    -0.01   0.08   0.07    -0.05   0.00   0.02
   2   6    -0.02  -0.06  -0.14    -0.00   0.06   0.05    -0.04  -0.02   0.03
   3   6    -0.01  -0.02  -0.07     0.01   0.06   0.03    -0.01  -0.01   0.02
   4   6     0.01   0.02   0.01     0.02   0.04   0.01     0.01  -0.03   0.03
   5   6     0.02   0.06   0.09     0.03   0.03  -0.01     0.04  -0.02   0.02
   6   6     0.03   0.10   0.17     0.04   0.01  -0.03     0.06  -0.04   0.03
   7   6     0.04   0.12   0.22     0.05   0.02  -0.04     0.09  -0.03   0.01
   8   6     0.03   0.10   0.17     0.04   0.04  -0.02     0.08  -0.00  -0.00
   9   7     0.02   0.07   0.10     0.03   0.05  -0.01     0.05  -0.00   0.00
  10   6     0.04   0.12   0.19     0.05   0.05  -0.03     0.09   0.01  -0.02
  11   6     0.03   0.10   0.14     0.05   0.07  -0.01     0.08   0.04  -0.04
  12   6     0.03   0.12   0.17     0.06   0.08  -0.02     0.10   0.05  -0.06
  13   6     0.03   0.09   0.10     0.05   0.10   0.00     0.08   0.07  -0.07
  14   6     0.02   0.05   0.03     0.04   0.11   0.02     0.06   0.06  -0.06
  15   7     0.02   0.06   0.06     0.04   0.09   0.01     0.06   0.05  -0.05
  16   6     0.01   0.02  -0.04     0.03   0.13   0.04     0.03   0.08  -0.07
  17   6    -0.01  -0.02  -0.11     0.02   0.13   0.06     0.01   0.07  -0.06
  18   6    -0.02  -0.05  -0.19     0.01   0.15   0.08    -0.02   0.09  -0.07
  19   6    -0.02  -0.08  -0.23     0.00   0.15   0.09    -0.04   0.08  -0.06
  20   6    -0.02  -0.06  -0.19     0.01   0.13   0.07    -0.03   0.06  -0.04
  21   7    -0.01  -0.03  -0.12     0.02   0.12   0.06    -0.00   0.06  -0.05
  22   6    -0.02  -0.08  -0.21    -0.00   0.12   0.08    -0.04   0.04  -0.02
  23   6    -0.02  -0.06  -0.16    -0.00   0.09   0.06    -0.04   0.02  -0.00
  24   7    -0.01  -0.02  -0.09     0.01   0.08   0.04    -0.01   0.01   0.00
  25   1    -0.01  -0.03  -0.08    -0.00   0.03   0.02    -0.02   0.00   0.01
  26   1    -0.01  -0.02  -0.04    -0.00   0.01   0.01    -0.01  -0.01   0.01
  27   1     0.01   0.03   0.05     0.01   0.00  -0.01     0.02  -0.02   0.01
  28   1     0.01   0.05   0.08     0.02   0.00  -0.02     0.03  -0.01   0.00
  29   1     0.00   0.01   0.01     0.01   0.02   0.00     0.01   0.00  -0.00
  30   1     0.01   0.04   0.07     0.02   0.01  -0.01     0.03   0.00  -0.01
  31   1     0.01   0.04   0.07     0.02   0.02  -0.01     0.04   0.01  -0.02
  32   1     0.01   0.03   0.03     0.02   0.03   0.00     0.03   0.02  -0.03
  33   1     0.00   0.01  -0.02     0.01   0.04   0.01     0.01   0.03  -0.03
  34   1    -0.01  -0.02  -0.06     0.00   0.05   0.03    -0.00   0.03  -0.03
  35   1    -0.01  -0.03  -0.09    -0.00   0.05   0.03    -0.02   0.02  -0.02
  36   1    -0.00  -0.00  -0.02     0.01   0.03   0.01     0.00   0.01  -0.01
  37   1    -0.01  -0.03  -0.08    -0.00   0.04   0.03    -0.02   0.01  -0.00
  38   6     0.01  -0.01   0.02     0.04   0.06   0.00    -0.03   0.00   0.01
  39   6     0.01  -0.01   0.01     0.02   0.04  -0.00    -0.02   0.03  -0.01
  40   6     0.00   0.00  -0.00     0.00   0.04   0.01    -0.02   0.02  -0.01
  41   6    -0.00   0.01  -0.01    -0.02   0.03   0.00    -0.01   0.04  -0.03
  42   6    -0.01   0.02  -0.02    -0.04   0.04   0.01    -0.00   0.03  -0.03
  43   6    -0.02   0.02  -0.03    -0.06   0.02   0.01     0.00   0.05  -0.04
  44   6    -0.02   0.03  -0.04    -0.07   0.03   0.02     0.01   0.04  -0.04
  45   6    -0.02   0.03  -0.03    -0.06   0.06   0.02     0.01   0.01  -0.02
  46   7    -0.01   0.03  -0.02    -0.05   0.06   0.02    -0.00   0.01  -0.01
  47   6    -0.02   0.04  -0.03    -0.07   0.07   0.03     0.01  -0.01  -0.00
  48   6    -0.02   0.04  -0.02    -0.07   0.09   0.04     0.01  -0.04   0.02
  49   6    -0.02   0.05  -0.03    -0.08   0.11   0.05     0.01  -0.06   0.04
  50   6    -0.02   0.05  -0.02    -0.06   0.13   0.05     0.01  -0.09   0.06
  51   6    -0.01   0.04  -0.01    -0.04   0.12   0.05     0.00  -0.08   0.06
  52   7    -0.01   0.04  -0.01    -0.05   0.11   0.04     0.00  -0.06   0.04
  53   6    -0.01   0.04   0.00    -0.02   0.14   0.05    -0.01  -0.10   0.08
  54   6    -0.00   0.03   0.01    -0.00   0.13   0.04    -0.01  -0.10   0.07
  55   6     0.00   0.02   0.02     0.02   0.15   0.04    -0.02  -0.12   0.09
  56   6     0.01   0.01   0.03     0.03   0.14   0.03    -0.02  -0.10   0.08
  57   6     0.01   0.01   0.02     0.02   0.11   0.03    -0.02  -0.07   0.06
  58   7     0.00   0.02   0.01     0.00   0.12   0.04    -0.02  -0.08   0.06
  59   6     0.01   0.00   0.02     0.03   0.10   0.02    -0.03  -0.05   0.04
  60   6     0.01  -0.00   0.01     0.02   0.07   0.01    -0.02  -0.02   0.02
  61   7     0.00   0.01   0.00     0.00   0.07   0.02    -0.02  -0.01   0.01
  62   1     0.00  -0.00   0.01     0.02   0.02   0.00    -0.01  -0.00   0.00
  63   1     0.00  -0.00   0.00     0.01   0.01  -0.00    -0.01   0.01  -0.01
  64   1    -0.00   0.01  -0.01    -0.02   0.00   0.00     0.00   0.02  -0.02
  65   1    -0.01   0.01  -0.01    -0.03   0.01   0.00     0.00   0.01  -0.01
  66   1    -0.00   0.01  -0.00    -0.01   0.02   0.01    -0.00  -0.00   0.00
  67   1    -0.01   0.01  -0.01    -0.03   0.02   0.01     0.01  -0.00  -0.00
  68   1    -0.01   0.02  -0.01    -0.03   0.03   0.02     0.01  -0.02   0.01
  69   1    -0.01   0.02  -0.00    -0.02   0.04   0.02     0.00  -0.03   0.02
  70   1    -0.00   0.01   0.00    -0.01   0.05   0.02    -0.00  -0.04   0.03
  71   1     0.00   0.01   0.01     0.00   0.05   0.01    -0.01  -0.04   0.03
  72   1     0.00   0.00   0.01     0.01   0.04   0.01    -0.01  -0.03   0.03
  73   1    -0.00   0.01   0.00    -0.00   0.03   0.01    -0.00  -0.01   0.01
  74   1     0.00  -0.00   0.01     0.01   0.03   0.00    -0.01  -0.02   0.01
  75   6     0.01   0.01   0.02     0.01   0.02   0.00     0.01  -0.05   0.05
  76   6     0.01   0.01   0.02     0.01   0.01   0.00     0.01  -0.07   0.06
  77   6     0.01   0.01   0.02     0.01  -0.01  -0.00     0.00  -0.08   0.07
  78   6     0.01   0.00   0.02     0.01  -0.02  -0.01     0.00  -0.09   0.07
  79   6    -0.00  -0.03   0.01    -0.00  -0.10  -0.03    -0.00  -0.03   0.02
  80   6    -0.00  -0.03   0.01    -0.00  -0.11  -0.04    -0.00  -0.01   0.01
  81   6    -0.00  -0.03   0.00    -0.00  -0.11  -0.04    -0.00   0.01  -0.00
  82   6    -0.00  -0.03   0.00    -0.00  -0.11  -0.04    -0.01   0.03  -0.02
  83   6    -0.00  -0.01  -0.01    -0.01  -0.04  -0.02    -0.02   0.10  -0.07
  84   6    -0.00  -0.01  -0.02    -0.01  -0.03  -0.02    -0.02   0.09  -0.06
  85   6    -0.00  -0.00  -0.02    -0.01  -0.01  -0.01    -0.01   0.08  -0.05
  86   6    -0.00   0.00  -0.01    -0.01   0.01  -0.00    -0.01   0.06  -0.04
  87   6    -0.01  -0.12   0.07    -0.02  -0.04  -0.01    -0.01  -0.07   0.06
  88   6    -0.01  -0.09   0.06    -0.01  -0.04  -0.01    -0.00  -0.08   0.06
  89   6    -0.00  -0.05   0.04    -0.00  -0.04  -0.01    -0.00  -0.08   0.06
  90   6     0.00  -0.00   0.03     0.00  -0.04  -0.01     0.00  -0.10   0.07
  91   6     0.01   0.04   0.01     0.01  -0.05  -0.01     0.00  -0.11   0.07
  92   6     0.01   0.08  -0.01     0.02  -0.04  -0.01     0.01  -0.12   0.08
  93   6     0.01   0.11  -0.02     0.02  -0.05  -0.01     0.01  -0.13   0.08
  94   6     0.01   0.08  -0.01     0.02  -0.06  -0.01     0.01  -0.12   0.07
  95   7     0.01   0.04   0.01     0.01  -0.06  -0.01     0.00  -0.12   0.08
  96   6     0.01   0.09  -0.02     0.02  -0.08  -0.02     0.01  -0.12   0.07
  97   6     0.01   0.07  -0.01     0.01  -0.08  -0.02     0.01  -0.11   0.06
  98   6     0.01   0.08  -0.02     0.02  -0.10  -0.02     0.01  -0.10   0.06
  99   6     0.01   0.05  -0.01     0.01  -0.10  -0.03     0.00  -0.08   0.05
 100   6     0.00   0.01   0.00     0.01  -0.09  -0.03     0.00  -0.07   0.05
 101   7     0.01   0.03   0.01     0.01  -0.09  -0.02     0.00  -0.09   0.06
 102   6    -0.00  -0.03   0.02    -0.00  -0.10  -0.03    -0.00  -0.05   0.04
 103   6    -0.00  -0.06   0.03    -0.01  -0.09  -0.03    -0.00  -0.05   0.04
 104   6    -0.01  -0.10   0.05    -0.01  -0.09  -0.03    -0.00  -0.03   0.03
 105   6    -0.01  -0.13   0.06    -0.02  -0.09  -0.02    -0.01  -0.04   0.03
 106   6    -0.01  -0.10   0.06    -0.02  -0.08  -0.02    -0.00  -0.05   0.04
 107   7    -0.00  -0.07   0.04    -0.01  -0.09  -0.02    -0.00  -0.06   0.05
 108   6    -0.01  -0.12   0.07    -0.02  -0.07  -0.02    -0.01  -0.06   0.05
 109   6    -0.01  -0.10   0.06    -0.01  -0.06  -0.01    -0.00  -0.07   0.06
 110   7    -0.00  -0.06   0.05    -0.01  -0.06  -0.01    -0.00  -0.09   0.06
 111   1    -0.00  -0.04   0.02    -0.01  -0.01  -0.00    -0.00  -0.02   0.02
 112   1    -0.00  -0.03   0.02    -0.00  -0.01  -0.00    -0.00  -0.02   0.02
 113   1     0.00   0.03  -0.00     0.01  -0.01  -0.00     0.00  -0.04   0.02
 114   1     0.00   0.04  -0.01     0.01  -0.02  -0.00     0.00  -0.04   0.02
 115   1     0.00   0.00   0.01     0.00  -0.02  -0.00     0.00  -0.03   0.02
 116   1     0.00   0.04  -0.01     0.01  -0.02  -0.00     0.00  -0.04   0.02
 117   1     0.00   0.03  -0.01     0.01  -0.03  -0.01     0.00  -0.03   0.02
 118   1     0.00   0.01  -0.01     0.00  -0.03  -0.01     0.00  -0.02   0.01
 119   1    -0.00  -0.03   0.01    -0.00  -0.03  -0.01    -0.00  -0.01   0.01
 120   1    -0.00  -0.05   0.02    -0.01  -0.02  -0.01    -0.00  -0.01   0.01
 121   1    -0.00  -0.01   0.01    -0.00  -0.02  -0.01    -0.00  -0.02   0.01
 122   1    -0.00  -0.04   0.02    -0.01  -0.02  -0.01    -0.00  -0.02   0.01
 123   6    -0.01   0.00  -0.03    -0.02  -0.11  -0.02    -0.02   0.06  -0.04
 124   6    -0.00  -0.01  -0.02    -0.01  -0.11  -0.03    -0.01   0.05  -0.03
 125   6    -0.00  -0.02  -0.01    -0.01  -0.10  -0.03    -0.01   0.06  -0.04
 126   6    -0.00  -0.03  -0.00    -0.00  -0.10  -0.03    -0.01   0.05  -0.03
 127   6     0.00  -0.04   0.01     0.00  -0.10  -0.03    -0.01   0.07  -0.04
 128   6     0.00  -0.05   0.02     0.01  -0.10  -0.04    -0.01   0.07  -0.05
 129   6     0.00  -0.06   0.02     0.02  -0.09  -0.04    -0.01   0.08  -0.06
 130   6     0.00  -0.05   0.02     0.01  -0.08  -0.03    -0.01   0.09  -0.07
 131   7     0.00  -0.04   0.01     0.01  -0.09  -0.03    -0.01   0.08  -0.06
 132   6     0.00  -0.05   0.02     0.02  -0.07  -0.03    -0.01   0.10  -0.08
 133   6     0.00  -0.04   0.01     0.01  -0.06  -0.03    -0.01   0.11  -0.08
 134   6     0.00  -0.05   0.02     0.01  -0.05  -0.03    -0.01   0.11  -0.08
 135   6     0.00  -0.04   0.01     0.01  -0.05  -0.03    -0.02   0.11  -0.08
 136   6    -0.00  -0.03  -0.00     0.00  -0.06  -0.02    -0.02   0.10  -0.07
 137   7     0.00  -0.03   0.00     0.00  -0.07  -0.03    -0.02   0.11  -0.08
 138   6    -0.00  -0.02  -0.01    -0.01  -0.05  -0.02    -0.02   0.10  -0.07
 139   6    -0.00  -0.01  -0.02    -0.01  -0.06  -0.02    -0.02   0.10  -0.07
 140   6    -0.01   0.00  -0.03    -0.02  -0.06  -0.02    -0.02   0.10  -0.07
 141   6    -0.01   0.01  -0.04    -0.03  -0.07  -0.01    -0.02   0.10  -0.07
 142   6    -0.01   0.00  -0.03    -0.02  -0.08  -0.02    -0.02   0.09  -0.06
 143   7    -0.00  -0.01  -0.02    -0.01  -0.08  -0.02    -0.02   0.10  -0.07
 144   6    -0.01   0.00  -0.03    -0.02  -0.09  -0.02    -0.02   0.08  -0.06
 145   6    -0.00  -0.00  -0.03    -0.02  -0.10  -0.02    -0.02   0.07  -0.05
 146   7    -0.00  -0.02  -0.02    -0.01  -0.10  -0.03    -0.01   0.08  -0.05
 147   1    -0.00   0.00  -0.01    -0.01  -0.03  -0.01    -0.00   0.02  -0.01
 148   1    -0.00  -0.00  -0.01    -0.00  -0.03  -0.01    -0.00   0.01  -0.01
 149   1     0.00  -0.02   0.01     0.00  -0.03  -0.01    -0.00   0.02  -0.01
 150   1     0.00  -0.02   0.01     0.01  -0.02  -0.01    -0.00   0.03  -0.02
 151   1    -0.00  -0.01   0.00    -0.00  -0.02  -0.01    -0.00   0.02  -0.02
 152   1     0.00  -0.02   0.01     0.01  -0.02  -0.01    -0.00   0.03  -0.02
 153   1     0.00  -0.02   0.01     0.01  -0.01  -0.01    -0.00   0.03  -0.03
 154   1     0.00  -0.01   0.00     0.00  -0.01  -0.01    -0.00   0.03  -0.02
 155   1    -0.00   0.00  -0.01    -0.01  -0.02  -0.00    -0.01   0.03  -0.02
 156   1    -0.00   0.01  -0.01    -0.01  -0.02  -0.00    -0.01   0.03  -0.02
 157   1    -0.00  -0.00  -0.00    -0.00  -0.02  -0.01    -0.00   0.03  -0.02
 158   1    -0.00   0.00  -0.01    -0.01  -0.03  -0.00    -0.01   0.02  -0.02
                      4                      5                      6
                        a                      a                      a 
 Frequencies --     5.1255                 5.9276                 7.9041
 Red. masses --    11.6415                11.2681                11.2352
 Frc consts  --     0.0000                 0.0000                 0.0000
 IR Inten    --     1.9890                 3.8913                 0.4441
 Raman Activ --     0.0000                 0.0000                 0.0000
 Depolar     --     0.0000                 0.0000                 0.0000
 Atom AN      X      Y      Z        X      Y      Z        X      Y      Z
   1   6    -0.01  -0.02  -0.06    -0.01   0.01   0.04     0.01   0.01   0.01
   2   6    -0.01  -0.03  -0.07    -0.01  -0.00   0.03     0.00   0.01   0.01
   3   6    -0.00  -0.02  -0.05    -0.00  -0.01   0.02     0.00   0.00  -0.00
   4   6     0.00  -0.03  -0.05    -0.00  -0.02   0.00    -0.00  -0.00  -0.01
   5   6     0.01  -0.01  -0.03     0.00  -0.03  -0.01    -0.00  -0.00  -0.02
   6   6     0.01  -0.02  -0.04     0.01  -0.04  -0.03    -0.00  -0.01  -0.03
   7   6     0.02  -0.00  -0.01     0.01  -0.04  -0.04    -0.01  -0.01  -0.03
   8   6     0.02   0.02   0.02     0.01  -0.03  -0.03    -0.01  -0.01  -0.02
   9   7     0.01   0.01   0.00     0.01  -0.02  -0.02    -0.00  -0.01  -0.02
  10   6     0.02   0.04   0.05     0.01  -0.03  -0.04    -0.01  -0.01  -0.03
  11   6     0.02   0.06   0.08     0.01  -0.02  -0.03    -0.01  -0.01  -0.02
  12   6     0.03   0.08   0.12     0.02  -0.01  -0.04    -0.01  -0.01  -0.02
  13   6     0.03   0.09   0.14     0.01  -0.00  -0.02    -0.01  -0.01  -0.01
  14   6     0.02   0.08   0.12     0.01   0.00  -0.01    -0.00  -0.01  -0.01
  15   7     0.02   0.06   0.09     0.01  -0.01  -0.01    -0.00  -0.01  -0.01
  16   6     0.02   0.09   0.13     0.01   0.02   0.01    -0.00  -0.00   0.00
  17   6     0.02   0.07   0.10     0.00   0.02   0.02     0.00   0.00   0.01
  18   6     0.01   0.08   0.11    -0.00   0.03   0.04     0.00   0.00   0.02
  19   6     0.01   0.06   0.08    -0.01   0.04   0.05     0.01   0.01   0.02
  20   6     0.01   0.04   0.05    -0.00   0.02   0.04     0.00   0.01   0.02
  21   7     0.01   0.05   0.07    -0.00   0.02   0.03     0.00   0.00   0.01
  22   6    -0.00   0.02   0.01    -0.01   0.02   0.05     0.01   0.01   0.02
  23   6    -0.00  -0.00  -0.02    -0.01   0.01   0.04     0.00   0.01   0.01
  24   7     0.00  -0.00  -0.02    -0.00  -0.00   0.02     0.00   0.00   0.00
  25   1    -0.00  -0.01  -0.02    -0.00   0.00   0.02     0.00   0.00   0.01
  26   1    -0.00  -0.02  -0.03    -0.00  -0.00   0.01     0.00   0.00   0.00
  27   1     0.00  -0.01  -0.02     0.00  -0.01  -0.01    -0.00  -0.00  -0.01
  28   1     0.01  -0.00  -0.00     0.00  -0.01  -0.02    -0.00  -0.00  -0.01
  29   1     0.00   0.00   0.00     0.00  -0.00  -0.00    -0.00  -0.00  -0.00
  30   1     0.01   0.01   0.02     0.00  -0.01  -0.02    -0.00  -0.00  -0.01
  31   1     0.01   0.02   0.04     0.01  -0.01  -0.01    -0.00  -0.01  -0.01
  32   1     0.01   0.03   0.05     0.00   0.00  -0.01    -0.00  -0.00  -0.00
  33   1     0.01   0.03   0.05     0.00   0.01   0.00    -0.00  -0.00   0.00
  34   1     0.00   0.03   0.04    -0.00   0.01   0.01     0.00   0.00   0.01
  35   1     0.00   0.02   0.02    -0.00   0.01   0.02     0.00   0.00   0.01
  36   1     0.00   0.01   0.01     0.00   0.00   0.00     0.00  -0.00   0.00
  37   1    -0.00   0.00   0.00    -0.00   0.01   0.02     0.00   0.00   0.01
  38   6    -0.09  -0.00   0.06    -0.01   0.12  -0.13    -0.01  -0.06   0.07
  39   6    -0.07   0.02   0.07    -0.01   0.08  -0.08    -0.00  -0.04   0.05
  40   6    -0.03   0.02   0.05    -0.00   0.04  -0.03    -0.00  -0.01   0.02
  41   6    -0.01   0.04   0.05     0.00  -0.01   0.02    -0.00   0.01  -0.00
  42   6     0.02   0.04   0.03     0.01  -0.06   0.07     0.00   0.03  -0.03
  43   6     0.05   0.06   0.03     0.01  -0.10   0.13     0.00   0.06  -0.06
  44   6     0.08   0.06   0.00     0.02  -0.14   0.17     0.00   0.07  -0.08
  45   6     0.06   0.04  -0.02     0.01  -0.12   0.14     0.00   0.06  -0.07
  46   7     0.03   0.03  -0.00     0.01  -0.07   0.09     0.00   0.04  -0.04
  47   6     0.08   0.02  -0.05     0.02  -0.14   0.16     0.00   0.07  -0.08
  48   6     0.07   0.00  -0.07     0.01  -0.12   0.13     0.00   0.05  -0.07
  49   6     0.09  -0.01  -0.10     0.02  -0.15   0.15     0.00   0.06  -0.08
  50   6     0.07  -0.03  -0.12     0.01  -0.11   0.11     0.00   0.04  -0.06
  51   6     0.03  -0.03  -0.09     0.01  -0.07   0.06     0.00   0.02  -0.03
  52   7     0.04  -0.01  -0.07     0.01  -0.08   0.07     0.00   0.03  -0.04
  53   6     0.01  -0.05  -0.10     0.00  -0.02  -0.00     0.00  -0.01  -0.00
  54   6    -0.03  -0.05  -0.08    -0.00   0.03  -0.05    -0.00  -0.03   0.03
  55   6    -0.05  -0.07  -0.08    -0.01   0.07  -0.11    -0.00  -0.06   0.06
  56   6    -0.08  -0.07  -0.05    -0.01   0.11  -0.15    -0.00  -0.08   0.08
  57   6    -0.06  -0.05  -0.03    -0.01   0.09  -0.11    -0.00  -0.06   0.06
  58   7    -0.03  -0.04  -0.05    -0.00   0.04  -0.06    -0.00  -0.04   0.03
  59   6    -0.08  -0.04   0.00    -0.01   0.11  -0.13    -0.00  -0.06   0.07
  60   6    -0.07  -0.01   0.03    -0.01   0.09  -0.10    -0.00  -0.05   0.05
  61   7    -0.04   0.00   0.02    -0.00   0.04  -0.05    -0.00  -0.02   0.03
  62   1    -0.03  -0.00   0.02    -0.01   0.04  -0.05    -0.00  -0.02   0.03
  63   1    -0.02   0.01   0.03    -0.00   0.03  -0.03    -0.00  -0.01   0.01
  64   1     0.02   0.02   0.02     0.00  -0.03   0.04     0.00   0.02  -0.02
  65   1     0.03   0.02  -0.00     0.01  -0.05   0.06     0.00   0.03  -0.03
  66   1     0.00   0.00  -0.00     0.00  -0.01   0.01     0.00   0.01  -0.01
  67   1     0.03   0.01  -0.02     0.01  -0.05   0.06     0.00   0.03  -0.03
  68   1     0.03  -0.00  -0.03     0.01  -0.05   0.06     0.00   0.02  -0.03
  69   1     0.02  -0.01  -0.04     0.00  -0.03   0.03     0.00   0.01  -0.02
  70   1     0.00  -0.02  -0.04     0.00  -0.01  -0.00     0.00  -0.00  -0.00
  71   1    -0.02  -0.03  -0.03    -0.00   0.02  -0.03    -0.00  -0.02   0.02
  72   1    -0.03  -0.02  -0.01    -0.01   0.04  -0.06    -0.00  -0.03   0.03
  73   1    -0.00  -0.01  -0.01    -0.00   0.00  -0.01    -0.00  -0.00   0.00
  74   1    -0.03  -0.01   0.00    -0.01   0.04  -0.05    -0.00  -0.02   0.03
  75   6    -0.00  -0.04  -0.08    -0.00  -0.03   0.00     0.00   0.00  -0.01
  76   6    -0.00  -0.06  -0.10    -0.00  -0.03   0.00     0.00   0.00  -0.01
  77   6    -0.01  -0.06  -0.10    -0.00  -0.03   0.00     0.00   0.00  -0.01
  78   6    -0.01  -0.07  -0.11    -0.00  -0.03   0.00     0.00   0.00  -0.01
  79   6    -0.00  -0.03  -0.03    -0.00   0.01  -0.01     0.00  -0.00   0.00
  80   6    -0.00  -0.02  -0.02    -0.00   0.02  -0.02     0.00  -0.00   0.00
  81   6    -0.00  -0.01  -0.00    -0.00   0.02  -0.02     0.00  -0.01   0.00
  82   6    -0.00  -0.00   0.01    -0.00   0.02  -0.02     0.00  -0.01   0.00
  83   6    -0.01   0.07   0.10    -0.00   0.01   0.00    -0.00   0.01   0.01
  84   6    -0.01   0.08   0.10     0.00   0.01   0.01    -0.00   0.01   0.00
  85   6    -0.01   0.07   0.09     0.00   0.00   0.01    -0.00   0.01   0.00
  86   6    -0.01   0.06   0.08     0.00  -0.00   0.02    -0.00   0.01  -0.00
  87   6     0.02  -0.09  -0.08    -0.01  -0.19   0.07     0.00  -0.09   0.04
  88   6     0.02  -0.09  -0.09    -0.01  -0.15   0.05     0.00  -0.07   0.02
  89   6     0.00  -0.08  -0.09    -0.00  -0.08   0.03     0.00  -0.03   0.01
  90   6    -0.01  -0.07  -0.10    -0.00  -0.02   0.00     0.00   0.01  -0.01
  91   6    -0.01  -0.06  -0.10     0.00   0.04  -0.02     0.00   0.04  -0.02
  92   6    -0.03  -0.05  -0.10     0.00   0.10  -0.04     0.00   0.08  -0.03
  93   6    -0.03  -0.04  -0.10     0.00   0.15  -0.06     0.00   0.11  -0.04
  94   6    -0.03  -0.05  -0.09     0.00   0.12  -0.05     0.00   0.09  -0.03
  95   7    -0.02  -0.06  -0.09     0.00   0.06  -0.02     0.00   0.05  -0.02
  96   6    -0.03  -0.04  -0.08     0.00   0.15  -0.06     0.00   0.10  -0.04
  97   6    -0.03  -0.04  -0.07     0.00   0.13  -0.05     0.00   0.08  -0.03
  98   6    -0.03  -0.03  -0.06     0.00   0.17  -0.07     0.00   0.10  -0.03
  99   6    -0.02  -0.03  -0.05     0.00   0.12  -0.05     0.00   0.07  -0.02
 100   6    -0.01  -0.04  -0.05     0.00   0.06  -0.03     0.00   0.03  -0.01
 101   7    -0.02  -0.05  -0.07     0.00   0.07  -0.03     0.00   0.04  -0.01
 102   6    -0.00  -0.04  -0.05    -0.00   0.01  -0.01     0.00   0.00   0.00
 103   6     0.01  -0.05  -0.05    -0.00  -0.05   0.02     0.00  -0.03   0.01
 104   6     0.02  -0.06  -0.04    -0.00  -0.11   0.04     0.00  -0.06   0.03
 105   6     0.03  -0.07  -0.05    -0.01  -0.16   0.06     0.00  -0.09   0.04
 106   6     0.02  -0.07  -0.06    -0.00  -0.13   0.05     0.00  -0.07   0.03
 107   7     0.01  -0.07  -0.06    -0.00  -0.07   0.03     0.00  -0.04   0.02
 108   6     0.02  -0.08  -0.07    -0.01  -0.17   0.07     0.00  -0.09   0.04
 109   6     0.02  -0.08  -0.08    -0.01  -0.14   0.06     0.00  -0.07   0.03
 110   7     0.01  -0.08  -0.09    -0.00  -0.09   0.03     0.00  -0.03   0.01
 111   1     0.01  -0.03  -0.02    -0.00  -0.07   0.03     0.00  -0.04   0.01
 112   1     0.00  -0.03  -0.03    -0.00  -0.05   0.02     0.00  -0.02   0.01
 113   1    -0.01  -0.02  -0.03     0.00   0.03  -0.01     0.00   0.03  -0.01
 114   1    -0.01  -0.01  -0.03     0.00   0.06  -0.02     0.00   0.04  -0.02
 115   1    -0.00  -0.02  -0.02     0.00   0.01  -0.00     0.00   0.01  -0.00
 116   1    -0.01  -0.01  -0.02     0.00   0.06  -0.02     0.00   0.04  -0.01
 117   1    -0.01  -0.01  -0.02     0.00   0.06  -0.02     0.00   0.04  -0.01
 118   1    -0.01  -0.01  -0.01     0.00   0.04  -0.02     0.00   0.02  -0.01
 119   1     0.01  -0.02  -0.01    -0.00  -0.03   0.01     0.00  -0.02   0.01
 120   1     0.01  -0.02  -0.01    -0.00  -0.06   0.02     0.00  -0.03   0.01
 121   1     0.00  -0.02  -0.02    -0.00  -0.01   0.00     0.00  -0.00   0.00
 122   1     0.01  -0.02  -0.02    -0.00  -0.06   0.03     0.00  -0.03   0.01
 123   6    -0.05   0.04   0.02    -0.01   0.03  -0.02     0.02  -0.18   0.17
 124   6    -0.04   0.02   0.01    -0.01   0.03  -0.02     0.01  -0.13   0.13
 125   6    -0.02   0.02   0.03    -0.01   0.03  -0.02     0.01  -0.07   0.06
 126   6    -0.00   0.01   0.03    -0.00   0.03  -0.02     0.00  -0.01   0.00
 127   6     0.01   0.01   0.04    -0.00   0.03  -0.02    -0.01   0.05  -0.05
 128   6     0.03  -0.01   0.05    -0.00   0.03  -0.03    -0.01   0.12  -0.11
 129   6     0.04  -0.00   0.06     0.00   0.03  -0.03    -0.02   0.16  -0.16
 130   6     0.03   0.01   0.07    -0.00   0.03  -0.02    -0.01   0.13  -0.12
 131   7     0.02   0.02   0.06    -0.00   0.03  -0.02    -0.01   0.07  -0.07
 132   6     0.04   0.02   0.09     0.00   0.03  -0.02    -0.02   0.16  -0.15
 133   6     0.03   0.03   0.10    -0.00   0.03  -0.02    -0.01   0.13  -0.12
 134   6     0.04   0.04   0.11     0.00   0.03  -0.02    -0.02   0.16  -0.15
 135   6     0.02   0.05   0.11     0.00   0.03  -0.01    -0.01   0.12  -0.11
 136   6     0.01   0.05   0.10    -0.00   0.02  -0.01    -0.01   0.06  -0.05
 137   7     0.01   0.04   0.09    -0.00   0.03  -0.02    -0.01   0.07  -0.06
 138   6    -0.01   0.06   0.10    -0.00   0.02  -0.00    -0.00   0.00   0.01
 139   6    -0.02   0.07   0.08    -0.00   0.02  -0.00     0.01  -0.06   0.07
 140   6    -0.04   0.08   0.08    -0.00   0.02   0.00     0.01  -0.12   0.13
 141   6    -0.05   0.07   0.06    -0.01   0.02  -0.00     0.02  -0.17   0.18
 142   6    -0.04   0.06   0.06    -0.01   0.02  -0.01     0.01  -0.14   0.14
 143   7    -0.03   0.06   0.07    -0.00   0.02  -0.01     0.01  -0.08   0.09
 144   6    -0.05   0.05   0.04    -0.01   0.02  -0.01     0.02  -0.17   0.17
 145   6    -0.04   0.04   0.03    -0.01   0.03  -0.02     0.01  -0.14   0.14
 146   7    -0.02   0.03   0.04    -0.01   0.03  -0.02     0.01  -0.08   0.08
 147   1    -0.02   0.01   0.00    -0.00   0.01  -0.01     0.01  -0.07   0.06
 148   1    -0.01   0.00  -0.00    -0.00   0.01  -0.01     0.00  -0.04   0.04
 149   1     0.01  -0.00   0.01    -0.00   0.01  -0.01    -0.00   0.04  -0.04
 150   1     0.02  -0.00   0.02     0.00   0.01  -0.01    -0.01   0.06  -0.06
 151   1     0.00   0.01   0.02    -0.00   0.01  -0.01    -0.00   0.01  -0.01
 152   1     0.02   0.00   0.03     0.00   0.01  -0.01    -0.01   0.06  -0.06
 153   1     0.01   0.01   0.04     0.00   0.01  -0.01    -0.01   0.06  -0.06
 154   1     0.01   0.02   0.04     0.00   0.01  -0.00    -0.00   0.04  -0.03
 155   1    -0.01   0.03   0.03    -0.00   0.00   0.00     0.00  -0.04   0.04
 156   1    -0.02   0.02   0.02    -0.00   0.00  -0.00     0.01  -0.06   0.07
 157   1    -0.00   0.01   0.02    -0.00   0.01  -0.00     0.00  -0.01   0.01
 158   1    -0.02   0.02   0.01    -0.00   0.01  -0.00     0.01  -0.06   0.06
                      7                      8                      9
                        a                      a                      a 
 Frequencies --     9.2562                10.0832                14.5163
 Red. masses --    11.4872                11.5462                11.5798
 Frc consts  --     0.0000                 0.0000                 0.0000
 IR Inten    --     1.0924                 0.7002                 7.8347
 Raman Activ --     0.0000                 0.0000                 0.0000
 Depolar     --     0.0000                 0.0000                 0.0000
 Atom AN      X      Y      Z        X      Y      Z        X      Y      Z
   1   6     0.03   0.05   0.09     0.10   0.05  -0.04     0.09   0.06  -0.05
   2   6     0.03   0.07   0.11     0.08   0.07  -0.05     0.07   0.08  -0.06
   3   6     0.02   0.05   0.08     0.04   0.06  -0.04     0.04   0.07  -0.05
   4   6     0.01   0.06   0.09     0.01   0.08  -0.05     0.01   0.09  -0.06
   5   6     0.01   0.05   0.08    -0.02   0.07  -0.05    -0.02   0.08  -0.05
   6   6     0.00   0.06   0.09    -0.05   0.09  -0.06    -0.05   0.10  -0.05
   7   6    -0.00   0.04   0.07    -0.08   0.08  -0.05    -0.07   0.09  -0.04
   8   6    -0.00   0.02   0.03    -0.07   0.04  -0.03    -0.06   0.06  -0.03
   9   7     0.00   0.03   0.05    -0.04   0.05  -0.03    -0.03   0.06  -0.03
  10   6    -0.01  -0.00  -0.00    -0.09   0.02  -0.01    -0.08   0.03  -0.01
  11   6    -0.01  -0.03  -0.04    -0.08  -0.01   0.01    -0.07   0.01   0.01
  12   6    -0.02  -0.06  -0.09    -0.10  -0.03   0.02    -0.09  -0.02   0.03
  13   6    -0.02  -0.08  -0.12    -0.08  -0.06   0.04    -0.07  -0.04   0.04
  14   6    -0.01  -0.06  -0.10    -0.05  -0.05   0.03    -0.04  -0.03   0.03
  15   7    -0.01  -0.04  -0.05    -0.05  -0.02   0.01    -0.04  -0.01   0.01
  16   6    -0.01  -0.08  -0.12    -0.02  -0.07   0.04    -0.02  -0.05   0.04
  17   6    -0.00  -0.06  -0.09     0.02  -0.06   0.04     0.02  -0.04   0.03
  18   6     0.00  -0.07  -0.10     0.05  -0.08   0.05     0.05  -0.06   0.04
  19   6     0.01  -0.05  -0.06     0.08  -0.06   0.03     0.07  -0.05   0.02
  20   6     0.01  -0.02  -0.02     0.06  -0.03   0.01     0.06  -0.02   0.01
  21   7     0.00  -0.03  -0.04     0.03  -0.03   0.02     0.03  -0.02   0.01
  22   6     0.02   0.01   0.02     0.08  -0.01  -0.00     0.08   0.00  -0.01
  23   6     0.02   0.03   0.05     0.07   0.02  -0.02     0.07   0.03  -0.03
  24   7     0.02   0.03   0.06     0.04   0.04  -0.03     0.04   0.05  -0.03
  25   1     0.01   0.02   0.03     0.04   0.01  -0.01     0.03   0.01  -0.01
  26   1     0.01   0.02   0.04     0.02   0.03  -0.02     0.02   0.03  -0.02
  27   1     0.00   0.02   0.03    -0.01   0.03  -0.02    -0.01   0.04  -0.02
  28   1    -0.00   0.01   0.02    -0.03   0.02  -0.01    -0.03   0.03  -0.01
  29   1     0.00   0.00   0.01    -0.00   0.01  -0.01    -0.00   0.01  -0.01
  30   1    -0.00  -0.00  -0.00    -0.03   0.01  -0.00    -0.03   0.01  -0.00
  31   1    -0.01  -0.02  -0.03    -0.04  -0.01   0.01    -0.03  -0.00   0.01
  32   1    -0.01  -0.03  -0.05    -0.03  -0.02   0.02    -0.02  -0.02   0.02
  33   1    -0.00  -0.03  -0.04    -0.01  -0.03   0.02    -0.01  -0.02   0.02
  34   1    -0.00  -0.03  -0.04     0.01  -0.03   0.02     0.01  -0.03   0.02
  35   1     0.00  -0.01  -0.02     0.03  -0.02   0.01     0.03  -0.02   0.01
  36   1     0.00  -0.01  -0.01     0.00  -0.00   0.00     0.00   0.00   0.00
  37   1     0.01   0.00   0.01     0.03  -0.00  -0.00     0.03  -0.00  -0.00
  38   6    -0.09   0.02   0.06    -0.04   0.10  -0.09     0.02  -0.11   0.11
  39   6    -0.07   0.03   0.08    -0.03   0.11  -0.10     0.02  -0.13   0.12
  40   6    -0.04   0.03   0.07    -0.02   0.09  -0.07     0.01  -0.10   0.09
  41   6    -0.01   0.04   0.08    -0.02   0.09  -0.07     0.01  -0.10   0.09
  42   6     0.02   0.04   0.07    -0.01   0.07  -0.06     0.00  -0.10   0.08
  43   6     0.04   0.04   0.08     0.00   0.08  -0.06    -0.00  -0.11   0.10
  44   6     0.07   0.03   0.06     0.01   0.06  -0.04    -0.01  -0.10   0.09
  45   6     0.05   0.02   0.04     0.01   0.03  -0.02    -0.01  -0.06   0.06
  46   7     0.03   0.02   0.04    -0.00   0.04  -0.03    -0.00  -0.07   0.07
  47   6     0.07   0.01   0.01     0.01  -0.01   0.01    -0.01  -0.03   0.03
  48   6     0.06  -0.01  -0.02     0.01  -0.05   0.04    -0.01   0.02  -0.02
  49   6     0.07  -0.02  -0.05     0.02  -0.09   0.08    -0.01   0.06  -0.06
  50   6     0.05  -0.03  -0.07     0.01  -0.12   0.10    -0.01   0.10  -0.10
  51   6     0.03  -0.02  -0.06    -0.00  -0.09   0.08    -0.00   0.08  -0.08
  52   7     0.03  -0.01  -0.03    -0.00  -0.05   0.05    -0.00   0.03  -0.03
  53   6    -0.00  -0.03  -0.07    -0.01  -0.11   0.09     0.00   0.11  -0.10
  54   6    -0.03  -0.03  -0.06    -0.02  -0.08   0.06     0.01   0.08  -0.07
  55   6    -0.06  -0.04  -0.07    -0.03  -0.09   0.07     0.01   0.09  -0.08
  56   6    -0.08  -0.03  -0.05    -0.03  -0.05   0.03     0.02   0.05  -0.04
  57   6    -0.07  -0.02  -0.02    -0.03  -0.01   0.00     0.02   0.00   0.00
  58   7    -0.04  -0.02  -0.03    -0.02  -0.04   0.02     0.01   0.03  -0.02
  59   6    -0.08  -0.01   0.01    -0.03   0.03  -0.04     0.02  -0.04   0.05
  60   6    -0.07   0.01   0.03    -0.03   0.06  -0.06     0.02  -0.08   0.08
  61   7    -0.04   0.02   0.04    -0.02   0.06  -0.05     0.01  -0.08   0.07
  62   1    -0.03   0.01   0.02    -0.01   0.03  -0.03     0.01  -0.04   0.04
  63   1    -0.02   0.01   0.03    -0.01   0.04  -0.04     0.01  -0.04   0.04
  64   1     0.01   0.02   0.03     0.00   0.03  -0.02    -0.00  -0.04   0.04
  65   1     0.03   0.01   0.02     0.00   0.02  -0.01    -0.00  -0.03   0.03
  66   1     0.00   0.00   0.01    -0.00   0.01  -0.01     0.00  -0.01   0.01
  67   1     0.03   0.00   0.00     0.01  -0.00   0.01    -0.00  -0.01   0.01
  68   1     0.03  -0.01  -0.01     0.01  -0.03   0.03    -0.01   0.02  -0.02
  69   1     0.02  -0.01  -0.03     0.00  -0.05   0.04    -0.00   0.04  -0.04
  70   1     0.00  -0.01  -0.03    -0.00  -0.04   0.03     0.00   0.04  -0.04
  71   1    -0.02  -0.01  -0.03    -0.01  -0.04   0.03     0.00   0.04  -0.04
  72   1    -0.03  -0.01  -0.01    -0.01  -0.01   0.01     0.01   0.01  -0.01
  73   1    -0.01  -0.00  -0.00    -0.00  -0.01   0.00     0.00   0.00  -0.00
  74   1    -0.03  -0.00   0.00    -0.01   0.01  -0.01     0.01  -0.02   0.02
  75   6     0.02   0.07   0.11     0.02   0.11  -0.07     0.02   0.11  -0.07
  76   6     0.02   0.08   0.12     0.02   0.12  -0.07     0.02   0.11  -0.06
  77   6     0.02   0.08   0.11     0.02   0.12  -0.07     0.02   0.09  -0.05
  78   6     0.02   0.07   0.10     0.02   0.10  -0.06     0.01   0.06  -0.04
  79   6     0.00  -0.07  -0.11     0.01  -0.11   0.08     0.00  -0.05   0.05
  80   6     0.00  -0.08  -0.12     0.01  -0.12   0.08    -0.00  -0.02   0.04
  81   6     0.00  -0.08  -0.12     0.01  -0.12   0.08    -0.00   0.01   0.02
  82   6     0.00  -0.07  -0.11     0.01  -0.11   0.08    -0.01   0.04  -0.01
  83   6    -0.01   0.05   0.09    -0.02   0.10  -0.07     0.00  -0.04   0.02
  84   6    -0.01   0.06   0.10    -0.02   0.11  -0.08     0.01  -0.07   0.05
  85   6    -0.01   0.06   0.11    -0.02   0.12  -0.09     0.01  -0.09   0.07
  86   6    -0.01   0.06   0.10    -0.02   0.11  -0.08     0.01  -0.11   0.09
  87   6    -0.07   0.05   0.05     0.03   0.04  -0.02     0.02  -0.04   0.01
  88   6    -0.05   0.06   0.07     0.03   0.07  -0.04     0.02   0.00  -0.01
  89   6    -0.02   0.05   0.05     0.02   0.06  -0.03     0.01  -0.00  -0.00
  90   6     0.01   0.06   0.07     0.02   0.08  -0.04     0.01   0.02  -0.01
  91   6     0.04   0.04   0.05     0.01   0.07  -0.03    -0.00  -0.00  -0.00
  92   6     0.08   0.05   0.07     0.00   0.08  -0.04    -0.01   0.00  -0.01
  93   6     0.10   0.03   0.04    -0.01   0.06  -0.03    -0.01  -0.03   0.01
  94   6     0.08   0.02   0.02    -0.00   0.03  -0.01    -0.01  -0.06   0.03
  95   7     0.05   0.03   0.03     0.01   0.04  -0.01    -0.00  -0.04   0.02
  96   6     0.09  -0.00  -0.01    -0.01  -0.01   0.01    -0.01  -0.09   0.05
  97   6     0.07  -0.02  -0.04    -0.00  -0.04   0.03    -0.01  -0.10   0.06
  98   6     0.09  -0.04  -0.06    -0.01  -0.07   0.05    -0.01  -0.12   0.07
  99   6     0.06  -0.06  -0.08    -0.00  -0.09   0.07    -0.01  -0.10   0.07
 100   6     0.03  -0.04  -0.07     0.01  -0.08   0.06    -0.00  -0.09   0.06
 101   7     0.04  -0.02  -0.04     0.00  -0.05   0.04    -0.01  -0.09   0.06
 102   6     0.00  -0.05  -0.08     0.01  -0.10   0.07     0.00  -0.08   0.06
 103   6    -0.03  -0.04  -0.07     0.02  -0.09   0.06     0.01  -0.08   0.06
 104   6    -0.06  -0.04  -0.08     0.02  -0.10   0.07     0.01  -0.10   0.07
 105   6    -0.08  -0.02  -0.06     0.03  -0.09   0.05     0.02  -0.11   0.07
 106   6    -0.06  -0.01  -0.03     0.02  -0.05   0.03     0.01  -0.10   0.06
 107   7    -0.03  -0.02  -0.04     0.02  -0.06   0.04     0.01  -0.09   0.06
 108   6    -0.08   0.01  -0.01     0.03  -0.02   0.02     0.02  -0.09   0.05
 109   6    -0.06   0.03   0.02     0.03   0.01  -0.00     0.01  -0.06   0.03
 110   7    -0.03   0.03   0.03     0.02   0.03  -0.01     0.01  -0.04   0.02
 111   1    -0.03   0.02   0.01     0.01   0.01  -0.01     0.01  -0.01   0.00
 112   1    -0.01   0.02   0.03     0.01   0.03  -0.02     0.01   0.01  -0.01
 113   1     0.02   0.02   0.03     0.00   0.03  -0.02    -0.00   0.01  -0.01
 114   1     0.04   0.01   0.01    -0.00   0.02  -0.01    -0.01  -0.01   0.00
 115   1     0.01   0.00   0.00     0.00   0.00  -0.00     0.00  -0.01   0.01
 116   1     0.03  -0.00  -0.00    -0.00  -0.00   0.00    -0.01  -0.03   0.02
 117   1     0.03  -0.01  -0.02    -0.00  -0.02   0.02    -0.01  -0.04   0.02
 118   1     0.02  -0.02  -0.03    -0.00  -0.03   0.02    -0.00  -0.03   0.02
 119   1    -0.02  -0.02  -0.03     0.01  -0.04   0.02     0.00  -0.03   0.02
 120   1    -0.03  -0.01  -0.02     0.01  -0.03   0.02     0.01  -0.03   0.02
 121   1    -0.00  -0.00  -0.01     0.00  -0.01   0.01     0.00  -0.02   0.01
 122   1    -0.03   0.00  -0.00     0.01  -0.01   0.00     0.01  -0.03   0.01
 123   6    -0.08  -0.05  -0.07    -0.01  -0.07   0.05    -0.00   0.09  -0.07
 124   6    -0.06  -0.06  -0.09    -0.00  -0.09   0.06    -0.00   0.08  -0.05
 125   6    -0.03  -0.05  -0.07     0.00  -0.08   0.05    -0.01   0.07  -0.04
 126   6    -0.00  -0.06  -0.09     0.01  -0.09   0.06    -0.01   0.06  -0.03
 127   6     0.03  -0.04  -0.07     0.01  -0.08   0.06    -0.02   0.07  -0.05
 128   6     0.06  -0.05  -0.09     0.02  -0.09   0.07    -0.02   0.08  -0.06
 129   6     0.08  -0.03  -0.06     0.02  -0.07   0.05    -0.03   0.09  -0.07
 130   6     0.06  -0.02  -0.04     0.02  -0.04   0.03    -0.02   0.09  -0.07
 131   7     0.03  -0.03  -0.05     0.01  -0.05   0.04    -0.02   0.08  -0.06
 132   6     0.07  -0.00  -0.01     0.01  -0.01   0.01    -0.03   0.09  -0.08
 133   6     0.06   0.01   0.02     0.01   0.02  -0.01    -0.02   0.07  -0.06
 134   6     0.07   0.03   0.04     0.01   0.05  -0.03    -0.02   0.05  -0.06
 135   6     0.05   0.04   0.07    -0.00   0.07  -0.05    -0.02   0.02  -0.03
 136   6     0.02   0.03   0.05    -0.00   0.06  -0.04    -0.01   0.02  -0.03
 137   7     0.03   0.01   0.02    -0.00   0.03  -0.02    -0.01   0.05  -0.05
 138   6    -0.01   0.03   0.06    -0.01   0.07  -0.06    -0.00  -0.00  -0.01
 139   6    -0.04   0.02   0.05    -0.02   0.06  -0.05     0.00   0.02  -0.02
 140   6    -0.07   0.03   0.06    -0.02   0.07  -0.06     0.01   0.01  -0.02
 141   6    -0.09   0.01   0.04    -0.02   0.05  -0.04     0.00   0.04  -0.04
 142   6    -0.07  -0.00   0.02    -0.02   0.02  -0.02    -0.00   0.06  -0.05
 143   7    -0.05   0.01   0.02    -0.01   0.03  -0.03    -0.00   0.05  -0.04
 144   6    -0.09  -0.02  -0.01    -0.02  -0.01   0.01    -0.00   0.08  -0.07
 145   6    -0.07  -0.03  -0.04    -0.01  -0.04   0.03    -0.00   0.08  -0.06
 146   7    -0.04  -0.04  -0.05    -0.00  -0.05   0.03    -0.01   0.08  -0.06
 147   1    -0.03  -0.02  -0.02    -0.00  -0.02   0.01     0.00   0.03  -0.02
 148   1    -0.02  -0.02  -0.03     0.00  -0.03   0.02    -0.00   0.02  -0.01
 149   1     0.02  -0.02  -0.03     0.01  -0.03   0.02    -0.01   0.02  -0.01
 150   1     0.03  -0.01  -0.02     0.01  -0.02   0.02    -0.01   0.03  -0.02
 151   1     0.00  -0.01  -0.01     0.00  -0.01   0.01    -0.00   0.02  -0.02
 152   1     0.03   0.00  -0.00     0.01  -0.00   0.00    -0.01   0.03  -0.03
 153   1     0.03   0.01   0.01     0.00   0.01  -0.01    -0.01   0.02  -0.02
 154   1     0.01   0.02   0.03    -0.00   0.03  -0.02    -0.00   0.00  -0.01
 155   1    -0.02   0.01   0.02    -0.01   0.03  -0.02     0.00  -0.00  -0.00
 156   1    -0.03   0.00   0.01    -0.01   0.02  -0.01     0.00   0.01  -0.01
 157   1    -0.01  -0.00   0.00    -0.00   0.00  -0.00    -0.00   0.01  -0.01
 158   1    -0.03  -0.01  -0.00    -0.01  -0.00   0.00     0.00   0.03  -0.02
                     10                     11                     12
                        a                      a                      a 
 Frequencies --    20.6458                22.6949                23.2521
 Red. masses --    11.5767                11.8896                11.5070
 Frc consts  --     0.0000                 0.0000                 0.0000
 IR Inten    --    17.4141                 1.0476                10.9007
 Raman Activ --     0.0000                 0.0000                 0.0000
 Depolar     --     0.0000                 0.0000                 0.0000
 Atom AN      X      Y      Z        X      Y      Z        X      Y      Z
   1   6     0.06   0.11   0.13    -0.12   0.01  -0.02     0.06  -0.03  -0.17
   2   6     0.05   0.12   0.12    -0.11   0.01  -0.01     0.05  -0.01  -0.16
   3   6     0.03   0.10   0.08    -0.10   0.01  -0.01     0.03   0.00  -0.12
   4   6     0.02   0.10   0.07    -0.09   0.01  -0.01     0.02   0.02  -0.11
   5   6     0.00   0.10   0.08    -0.10   0.01  -0.01    -0.00   0.01  -0.12
   6   6    -0.01   0.12   0.10    -0.11   0.01  -0.01    -0.02   0.01  -0.15
   7   6    -0.02   0.12   0.11    -0.12   0.00  -0.01    -0.04  -0.01  -0.15
   8   6    -0.02   0.09   0.09    -0.11  -0.00  -0.00    -0.03  -0.01  -0.12
   9   7    -0.01   0.09   0.08    -0.11  -0.00   0.00    -0.01  -0.00  -0.11
  10   6    -0.03   0.06   0.06    -0.11  -0.01   0.00    -0.04  -0.01  -0.09
  11   6    -0.04   0.01   0.01    -0.12   0.01   0.00    -0.02  -0.00  -0.02
  12   6    -0.05  -0.03  -0.04    -0.11   0.02   0.00    -0.03   0.01   0.04
  13   6    -0.05  -0.08  -0.10    -0.11   0.03   0.01    -0.02   0.03   0.11
  14   6    -0.03  -0.06  -0.08    -0.13   0.03   0.01     0.00   0.02   0.09
  15   7    -0.02  -0.01  -0.02    -0.14   0.01   0.01    -0.00   0.01   0.01
  16   6    -0.02  -0.09  -0.12    -0.13   0.03   0.01     0.02   0.03   0.13
  17   6     0.00  -0.06  -0.08    -0.13   0.03   0.01     0.03   0.02   0.09
  18   6     0.02  -0.08  -0.09    -0.12   0.03   0.01     0.05   0.02   0.11
  19   6     0.04  -0.04  -0.03    -0.11   0.03   0.00     0.06  -0.01   0.04
  20   6     0.03   0.00   0.02    -0.12   0.03  -0.01     0.05  -0.02  -0.02
  21   7     0.01  -0.01  -0.02    -0.14   0.04  -0.01     0.04  -0.00   0.01
  22   6     0.05   0.05   0.08    -0.12   0.03  -0.02     0.05  -0.04  -0.09
  23   6     0.05   0.08   0.10    -0.11   0.03  -0.02     0.05  -0.03  -0.12
  24   7     0.03   0.08   0.08    -0.11   0.02  -0.02     0.03  -0.01  -0.11
  25   1     0.02   0.04   0.04    -0.04   0.00  -0.01     0.02  -0.01  -0.06
  26   1     0.02   0.04   0.04    -0.03  -0.00  -0.00     0.01  -0.00  -0.05
  27   1    -0.00   0.04   0.03    -0.03   0.00  -0.00    -0.01   0.00  -0.05
  28   1    -0.01   0.04   0.04    -0.04   0.00  -0.00    -0.02  -0.00  -0.05
  29   1     0.00   0.02   0.02    -0.03  -0.00   0.00     0.00  -0.00  -0.02
  30   1    -0.01   0.02   0.02    -0.03  -0.00   0.00    -0.02  -0.01  -0.03
  31   1    -0.02  -0.01  -0.01    -0.03   0.00   0.00    -0.01   0.00   0.01
  32   1    -0.02  -0.03  -0.04    -0.03   0.01   0.00    -0.00   0.01   0.05
  33   1    -0.01  -0.04  -0.05    -0.04   0.01   0.00     0.01   0.01   0.06
  34   1     0.00  -0.04  -0.04    -0.04   0.01   0.01     0.02   0.01   0.05
  35   1     0.01  -0.01  -0.01    -0.03   0.01   0.00     0.02  -0.01   0.01
  36   1     0.00   0.00   0.00    -0.04   0.01  -0.00     0.01  -0.00  -0.00
  37   1     0.02   0.02   0.03    -0.03   0.01  -0.01     0.02  -0.01  -0.03
  38   6     0.04   0.03  -0.10     0.11   0.04  -0.00    -0.03   0.08  -0.08
  39   6     0.03   0.02  -0.10     0.10   0.03  -0.01    -0.02   0.07  -0.06
  40   6     0.02   0.01  -0.08     0.10   0.03  -0.00    -0.02   0.05  -0.04
  41   6     0.01  -0.00  -0.08     0.09   0.03  -0.00    -0.01   0.04  -0.03
  42   6    -0.01   0.00  -0.08     0.10   0.03  -0.00    -0.01   0.05  -0.04
  43   6    -0.02   0.01  -0.09     0.12   0.04  -0.00    -0.01   0.07  -0.06
  44   6    -0.03   0.02  -0.09     0.13   0.03  -0.01    -0.01   0.07  -0.06
  45   6    -0.03   0.02  -0.06     0.12   0.01  -0.02    -0.01   0.06  -0.05
  46   7    -0.01   0.01  -0.07     0.11   0.01  -0.01    -0.01   0.05  -0.04
  47   6    -0.03   0.01  -0.04     0.13   0.01  -0.02    -0.01   0.04  -0.04
  48   6    -0.03  -0.00  -0.00     0.13   0.00  -0.01    -0.01   0.01  -0.01
  49   6    -0.03  -0.01   0.03     0.12   0.00   0.00    -0.00  -0.02   0.02
  50   6    -0.02  -0.03   0.07     0.13  -0.00   0.01    -0.01  -0.05   0.05
  51   6    -0.01  -0.02   0.05     0.14  -0.00   0.01    -0.01  -0.04   0.04
  52   7    -0.01  -0.01   0.01     0.15  -0.00  -0.00    -0.01  -0.01   0.01
  53   6     0.00  -0.03   0.07     0.14  -0.01   0.02    -0.02  -0.07   0.06
  54   6     0.02  -0.02   0.05     0.13  -0.00   0.01    -0.02  -0.05   0.04
  55   6     0.03  -0.02   0.06     0.12  -0.01   0.01    -0.02  -0.05   0.05
  56   6     0.04  -0.00   0.03     0.10   0.01   0.01    -0.02  -0.02   0.01
  57   6     0.03   0.01  -0.01     0.11   0.02   0.01    -0.02   0.01  -0.01
  58   7     0.02  -0.00   0.01     0.14   0.02   0.02    -0.02  -0.01   0.00
  59   6     0.04   0.02  -0.05     0.11   0.04   0.01    -0.03   0.04  -0.05
  60   6     0.03   0.03  -0.07     0.10   0.04   0.01    -0.02   0.06  -0.06
  61   7     0.02   0.01  -0.07     0.10   0.04   0.01    -0.02   0.05  -0.05
  62   1     0.02   0.01  -0.03     0.03   0.01  -0.00    -0.01   0.03  -0.03
  63   1     0.01   0.01  -0.03     0.03   0.01  -0.00    -0.01   0.02  -0.02
  64   1    -0.01   0.00  -0.03     0.03   0.01   0.00    -0.00   0.02  -0.02
  65   1    -0.01   0.01  -0.03     0.04   0.01  -0.00    -0.00   0.02  -0.02
  66   1    -0.00   0.00  -0.01     0.03  -0.00  -0.01    -0.00   0.01  -0.01
  67   1    -0.01   0.01  -0.01     0.04   0.00  -0.01    -0.00   0.02  -0.01
  68   1    -0.01  -0.00   0.01     0.03   0.00   0.00     0.00  -0.00   0.00
  69   1    -0.01  -0.01   0.03     0.04  -0.00   0.01    -0.00  -0.02   0.02
  70   1     0.00  -0.01   0.03     0.04  -0.00   0.01    -0.00  -0.03   0.03
  71   1     0.01  -0.01   0.03     0.03  -0.01   0.00    -0.01  -0.02   0.02
  72   1     0.02   0.00   0.01     0.03   0.00   0.00    -0.01  -0.00   0.00
  73   1     0.00  -0.00  -0.00     0.04   0.01   0.01    -0.01   0.00  -0.00
  74   1     0.02   0.01  -0.02     0.03   0.01   0.00    -0.01   0.02  -0.02
  75   6     0.02   0.10   0.04    -0.09   0.01  -0.00     0.02   0.05  -0.08
  76   6     0.01   0.06  -0.00    -0.09   0.01   0.01     0.02   0.06  -0.01
  77   6     0.00   0.02  -0.03    -0.09   0.00   0.01     0.02   0.05   0.04
  78   6    -0.00  -0.04  -0.06    -0.09   0.00   0.02     0.02   0.03   0.10
  79   6    -0.01   0.05  -0.07    -0.00  -0.02  -0.00    -0.01   0.07  -0.05
  80   6    -0.01   0.09  -0.05    -0.00  -0.02  -0.01    -0.01   0.09  -0.09
  81   6    -0.01   0.12  -0.03    -0.00  -0.02  -0.02    -0.01   0.09  -0.11
  82   6    -0.01   0.13   0.01     0.00  -0.02  -0.02    -0.01   0.09  -0.12
  83   6     0.01  -0.04   0.04     0.09   0.01   0.00    -0.00  -0.07   0.08
  84   6     0.01  -0.04  -0.00     0.09   0.02   0.00    -0.01  -0.04   0.05
  85   6     0.01  -0.03  -0.04     0.09   0.02   0.00    -0.01  -0.01   0.03
  86   6     0.01  -0.02  -0.07     0.09   0.03   0.00    -0.01   0.03  -0.01
  87   6    -0.01  -0.13  -0.03    -0.05  -0.02   0.03    -0.04  -0.04   0.11
  88   6    -0.01  -0.11  -0.04    -0.07  -0.02   0.02    -0.03  -0.02   0.12
  89   6    -0.01  -0.09  -0.05    -0.08  -0.01   0.03    -0.00  -0.01   0.10
  90   6    -0.01  -0.07  -0.06    -0.09  -0.01   0.02     0.02   0.01   0.11
  91   6    -0.01  -0.07  -0.05    -0.08  -0.01   0.01     0.03  -0.01   0.10
  92   6    -0.01  -0.08  -0.05    -0.05  -0.01   0.02     0.05  -0.02   0.11
  93   6    -0.02  -0.09  -0.04    -0.03  -0.03   0.01     0.06  -0.04   0.11
  94   6    -0.01  -0.09  -0.04    -0.05  -0.04  -0.02     0.05  -0.04   0.09
  95   7    -0.01  -0.09  -0.05    -0.08  -0.03  -0.01     0.03  -0.03   0.10
  96   6    -0.01  -0.09  -0.04    -0.04  -0.05  -0.03     0.05  -0.05   0.07
  97   6    -0.01  -0.06  -0.05    -0.04  -0.05  -0.02     0.04  -0.03   0.05
  98   6    -0.02  -0.04  -0.05    -0.04  -0.05  -0.00     0.05  -0.02   0.02
  99   6    -0.01  -0.01  -0.06    -0.03  -0.03   0.01     0.04   0.01  -0.01
 100   6    -0.01  -0.02  -0.06    -0.01  -0.03  -0.00     0.02   0.02  -0.00
 101   7    -0.01  -0.05  -0.06    -0.02  -0.04  -0.02     0.02  -0.01   0.04
 102   6    -0.01   0.01  -0.07    -0.00  -0.03  -0.00    -0.01   0.04  -0.02
 103   6    -0.01  -0.02  -0.06    -0.02  -0.03   0.01    -0.02   0.03  -0.00
 104   6    -0.00  -0.02  -0.06    -0.04  -0.03  -0.00    -0.04   0.03  -0.01
 105   6    -0.00  -0.06  -0.05    -0.06  -0.03   0.02    -0.05   0.00   0.01
 106   6    -0.00  -0.08  -0.04    -0.05  -0.02   0.05    -0.04  -0.02   0.04
 107   7    -0.01  -0.06  -0.05    -0.02  -0.02   0.04    -0.02   0.00   0.03
 108   6    -0.00  -0.11  -0.03    -0.05  -0.02   0.06    -0.04  -0.04   0.07
 109   6    -0.01  -0.11  -0.03    -0.06  -0.02   0.05    -0.03  -0.04   0.09
 110   7    -0.01  -0.10  -0.05    -0.08  -0.01   0.05    -0.01  -0.02   0.09
 111   1    -0.00  -0.04  -0.01    -0.01  -0.01   0.01    -0.02  -0.02   0.04
 112   1    -0.00  -0.03  -0.01    -0.02  -0.01   0.00    -0.01  -0.00   0.04
 113   1    -0.00  -0.02  -0.02    -0.01   0.00   0.01     0.01  -0.00   0.04
 114   1    -0.01  -0.03  -0.01    -0.00  -0.01   0.00     0.02  -0.02   0.03
 115   1    -0.00  -0.02  -0.01    -0.03  -0.01  -0.01     0.01  -0.01   0.02
 116   1    -0.00  -0.03  -0.01    -0.01  -0.02  -0.01     0.02  -0.02   0.02
 117   1    -0.00  -0.02  -0.01    -0.02  -0.01   0.00     0.02  -0.01   0.01
 118   1    -0.00   0.00  -0.02    -0.01  -0.01   0.01     0.01   0.01  -0.01
 119   1    -0.00   0.00  -0.02    -0.01  -0.01  -0.01    -0.01   0.02  -0.01
 120   1     0.00  -0.02  -0.01    -0.03  -0.01   0.01    -0.02  -0.00   0.00
 121   1    -0.00  -0.02  -0.01     0.00  -0.00   0.02    -0.00  -0.00   0.01
 122   1    -0.00  -0.04  -0.01    -0.02  -0.01   0.02    -0.02  -0.02   0.02
 123   6     0.03   0.08   0.04     0.04  -0.02  -0.03    -0.02   0.04  -0.07
 124   6     0.02   0.11   0.03     0.03  -0.01  -0.02    -0.02   0.07  -0.10
 125   6     0.00   0.09   0.03     0.01  -0.02  -0.03    -0.01   0.05  -0.08
 126   6    -0.01   0.11   0.02     0.00  -0.02  -0.02    -0.01   0.07  -0.10
 127   6    -0.02   0.09   0.03     0.02  -0.01  -0.02    -0.01   0.05  -0.08
 128   6    -0.04   0.10   0.03     0.04  -0.02  -0.03    -0.01   0.07  -0.10
 129   6    -0.04   0.07   0.05     0.06   0.00  -0.01     0.00   0.04  -0.06
 130   6    -0.03   0.04   0.06     0.05   0.02   0.01     0.00   0.00  -0.03
 131   7    -0.02   0.06   0.05     0.02   0.01   0.01    -0.00   0.02  -0.05
 132   6    -0.03   0.00   0.07     0.05   0.02   0.02     0.01  -0.04   0.02
 133   6    -0.02  -0.02   0.08     0.06   0.02   0.01     0.01  -0.07   0.05
 134   6    -0.03  -0.05   0.08     0.05   0.01   0.00     0.02  -0.09   0.09
 135   6    -0.02  -0.06   0.08     0.07  -0.00  -0.00     0.01  -0.10   0.10
 136   6    -0.01  -0.04   0.07     0.08   0.01   0.00     0.00  -0.08   0.08
 137   7    -0.01  -0.02   0.07     0.08   0.02   0.01     0.00  -0.07   0.05
 138   6     0.01  -0.04   0.06     0.09   0.00  -0.00    -0.00  -0.08   0.08
 139   6     0.02  -0.03   0.07     0.08  -0.00  -0.01    -0.00  -0.08   0.08
 140   6     0.04  -0.05   0.07     0.05  -0.00   0.01    -0.00  -0.10   0.09
 141   6     0.05  -0.04   0.08     0.03  -0.02  -0.01    -0.00  -0.08   0.08
 142   6     0.04  -0.01   0.07     0.05  -0.03  -0.03    -0.01  -0.06   0.05
 143   7     0.02  -0.02   0.07     0.08  -0.03  -0.03    -0.01  -0.06   0.06
 144   6     0.04   0.01   0.07     0.04  -0.04  -0.04    -0.01  -0.03   0.02
 145   6     0.03   0.05   0.06     0.03  -0.03  -0.04    -0.02   0.01  -0.03
 146   7     0.01   0.06   0.05     0.02  -0.03  -0.04    -0.01   0.02  -0.04
 147   1     0.01   0.02   0.01     0.02  -0.00  -0.01    -0.01   0.01  -0.02
 148   1     0.00   0.04   0.00     0.01   0.00  -0.00    -0.01   0.03  -0.04
 149   1    -0.01   0.04   0.01     0.01  -0.01  -0.01    -0.00   0.03  -0.04
 150   1    -0.02   0.02   0.01     0.03   0.00  -0.00     0.00   0.01  -0.02
 151   1    -0.00   0.01   0.01    -0.00   0.01   0.01     0.00  -0.00  -0.01
 152   1    -0.01  -0.00   0.02     0.02   0.01   0.01     0.00  -0.01   0.01
 153   1    -0.01  -0.02   0.03     0.01   0.00   0.00     0.01  -0.03   0.03
 154   1    -0.00  -0.02   0.02     0.02  -0.00  -0.00     0.00  -0.03   0.04
 155   1     0.01  -0.02   0.02     0.01   0.00   0.01     0.00  -0.03   0.03
 156   1     0.02  -0.01   0.02     0.00  -0.01  -0.00    -0.00  -0.03   0.03
 157   1     0.00  -0.00   0.02     0.03  -0.01  -0.01    -0.00  -0.01   0.01
 158   1     0.02   0.00   0.02     0.01  -0.01  -0.01    -0.00  -0.01   0.01
                     13                     14                     15
                        a                      a                      a 
 Frequencies --    29.6976                31.3893                37.5572
 Red. masses --    11.5747                11.4810                11.4483
 Frc consts  --     0.0000                 0.0000                 0.0000
 IR Inten    --     5.1197                 0.0977                 2.7874
 Raman Activ --     0.0000                 0.0000                 0.0000
 Depolar     --     0.0000                 0.0000                 0.0000
 Atom AN      X      Y      Z        X      Y      Z        X      Y      Z
   1   6     0.04   0.05   0.06     0.06   0.04  -0.06     0.03   0.04   0.02
   2   6     0.03   0.05   0.04     0.05   0.06  -0.06     0.02   0.03   0.00
   3   6     0.02   0.04   0.02     0.03   0.06  -0.04     0.01   0.03  -0.01
   4   6     0.01   0.03  -0.00     0.01   0.07  -0.04     0.00   0.02  -0.02
   5   6     0.00   0.04   0.01    -0.01   0.06  -0.04    -0.00   0.02  -0.01
   6   6    -0.00   0.05   0.03    -0.03   0.08  -0.05    -0.01   0.03  -0.01
   7   6    -0.01   0.06   0.05    -0.05   0.06  -0.05    -0.01   0.04   0.01
   8   6    -0.00   0.05   0.05    -0.04   0.04  -0.04    -0.01   0.03   0.01
   9   7     0.00   0.04   0.03    -0.01   0.05  -0.04    -0.00   0.03   0.00
  10   6    -0.01   0.04   0.05    -0.05   0.02  -0.03    -0.01   0.03   0.02
  11   6    -0.01   0.01   0.02    -0.05   0.01  -0.01    -0.01   0.01   0.02
  12   6    -0.02  -0.00  -0.00    -0.06  -0.00   0.01    -0.02   0.00   0.01
  13   6    -0.02  -0.03  -0.04    -0.05  -0.01   0.03    -0.02  -0.01  -0.01
  14   6    -0.01  -0.03  -0.04    -0.02  -0.01   0.02    -0.01  -0.01  -0.01
  15   7    -0.00   0.00  -0.00    -0.03   0.01  -0.00    -0.01   0.00   0.00
  16   6    -0.00  -0.04  -0.06    -0.01  -0.02   0.04    -0.00  -0.02  -0.02
  17   6     0.01  -0.03  -0.04     0.02  -0.01   0.02     0.01  -0.02  -0.02
  18   6     0.01  -0.04  -0.04     0.04  -0.03   0.03     0.01  -0.02  -0.02
  19   6     0.02  -0.01  -0.00     0.05  -0.02   0.01     0.02  -0.01   0.00
  20   6     0.02   0.01   0.02     0.04  -0.01  -0.01     0.02   0.00   0.01
  21   7     0.02  -0.01  -0.00     0.02  -0.00  -0.00     0.01  -0.00  -0.00
  22   6     0.03   0.03   0.05     0.06   0.01  -0.03     0.03   0.02   0.02
  23   6     0.03   0.04   0.05     0.05   0.03  -0.04     0.02   0.03   0.02
  24   7     0.02   0.03   0.03     0.03   0.04  -0.04     0.01   0.02   0.00
  25   1     0.01   0.02   0.02     0.02   0.01  -0.02     0.01   0.01   0.01
  26   1     0.01   0.02   0.01     0.02   0.02  -0.02     0.01   0.01  -0.00
  27   1    -0.00   0.02   0.01    -0.01   0.03  -0.02    -0.00   0.01  -0.01
  28   1    -0.00   0.02   0.02    -0.02   0.02  -0.02    -0.01   0.01   0.00
  29   1     0.00   0.01   0.01    -0.00   0.01  -0.01     0.00   0.01   0.00
  30   1    -0.00   0.01   0.02    -0.02   0.01  -0.01    -0.01   0.01   0.01
  31   1    -0.01   0.00   0.00    -0.02  -0.00   0.00    -0.01   0.00   0.01
  32   1    -0.01  -0.01  -0.02    -0.01  -0.01   0.01    -0.01  -0.01  -0.00
  33   1    -0.00  -0.02  -0.02    -0.00  -0.01   0.02    -0.00  -0.01  -0.01
  34   1     0.00  -0.02  -0.02     0.01  -0.01   0.01     0.00  -0.01  -0.01
  35   1     0.01  -0.00   0.00     0.02  -0.01   0.00     0.01  -0.00   0.00
  36   1     0.00   0.00   0.00     0.00   0.00  -0.00     0.00   0.00   0.00
  37   1     0.01   0.01   0.02     0.02  -0.00  -0.01     0.01   0.01   0.01
  38   6    -0.10   0.09   0.06    -0.00  -0.06   0.08     0.08  -0.05  -0.07
  39   6    -0.08   0.11   0.08    -0.00  -0.04   0.05     0.06  -0.08  -0.08
  40   6    -0.04   0.09   0.07    -0.00  -0.02   0.03     0.03  -0.07  -0.06
  41   6    -0.01   0.10   0.09    -0.00   0.00   0.01     0.01  -0.09  -0.07
  42   6     0.02   0.10   0.08     0.00  -0.01   0.03    -0.01  -0.07  -0.07
  43   6     0.05   0.11   0.09     0.01  -0.03   0.04    -0.04  -0.08  -0.09
  44   6     0.08   0.10   0.07     0.01  -0.05   0.07    -0.06  -0.06  -0.08
  45   6     0.06   0.07   0.04     0.01  -0.05   0.06    -0.05  -0.04  -0.06
  46   7     0.03   0.08   0.06     0.00  -0.03   0.04    -0.02  -0.05  -0.06
  47   6     0.08   0.04   0.02     0.01  -0.05   0.06    -0.06  -0.02  -0.04
  48   6     0.07   0.01   0.00     0.01  -0.02   0.02    -0.05  -0.01  -0.01
  49   6     0.09  -0.01  -0.02     0.01  -0.00  -0.00    -0.07   0.00   0.01
  50   6     0.07  -0.04  -0.03     0.01   0.04  -0.04    -0.05   0.01   0.04
  51   6     0.03  -0.03  -0.02     0.00   0.03  -0.04    -0.02   0.00   0.03
  52   7     0.04   0.00   0.00     0.01   0.00  -0.00    -0.03  -0.01  -0.00
  53   6     0.00  -0.05  -0.02     0.00   0.06  -0.07     0.00   0.01   0.04
  54   6    -0.03  -0.04  -0.01     0.00   0.04  -0.04     0.03   0.01   0.02
  55   6    -0.07  -0.05  -0.02    -0.00   0.04  -0.05     0.05   0.03   0.03
  56   6    -0.09  -0.03  -0.01    -0.00   0.00  -0.01     0.07   0.02   0.01
  57   6    -0.08   0.00   0.01    -0.00  -0.02   0.02     0.06   0.01  -0.02
  58   7    -0.04  -0.00   0.00     0.00   0.00  -0.00     0.04   0.00  -0.00
  59   6    -0.10   0.03   0.02    -0.00  -0.05   0.06     0.08  -0.01  -0.04
  60   6    -0.08   0.06   0.04    -0.00  -0.05   0.06     0.06  -0.03  -0.06
  61   7    -0.05   0.07   0.06    -0.00  -0.03   0.04     0.04  -0.05  -0.06
  62   1    -0.04   0.03   0.02    -0.00  -0.02   0.03     0.03  -0.01  -0.02
  63   1    -0.02   0.04   0.03    -0.00  -0.01   0.01     0.02  -0.03  -0.02
  64   1     0.02   0.04   0.03     0.00  -0.01   0.01    -0.01  -0.03  -0.03
  65   1     0.03   0.03   0.02     0.00  -0.02   0.02    -0.02  -0.02  -0.03
  66   1     0.00   0.02   0.01     0.00  -0.01   0.01    -0.00  -0.01  -0.01
  67   1     0.03   0.01   0.00     0.00  -0.02   0.02    -0.03  -0.00  -0.01
  68   1     0.03  -0.00  -0.01     0.00  -0.00   0.00    -0.03   0.00   0.00
  69   1     0.02  -0.02  -0.01     0.00   0.02  -0.02    -0.02   0.01   0.02
  70   1     0.00  -0.02  -0.01     0.00   0.02  -0.03    -0.00   0.01   0.02
  71   1    -0.02  -0.02  -0.01    -0.00   0.02  -0.02     0.02   0.01   0.02
  72   1    -0.04  -0.01  -0.00    -0.00  -0.00   0.00     0.03   0.01   0.00
  73   1    -0.01   0.00   0.00     0.00  -0.00   0.00     0.01  -0.00  -0.00
  74   1    -0.04   0.01   0.01    -0.00  -0.02   0.02     0.03  -0.00  -0.01
  75   6     0.01   0.02  -0.03     0.02   0.08  -0.03     0.00   0.01  -0.04
  76   6    -0.00  -0.02  -0.06     0.01   0.04   0.01    -0.00  -0.02  -0.05
  77   6    -0.00  -0.05  -0.08     0.00  -0.01   0.04    -0.01  -0.05  -0.04
  78   6    -0.01  -0.08  -0.08    -0.01  -0.07   0.08    -0.01  -0.08  -0.02
  79   6    -0.00   0.11   0.11    -0.01   0.12  -0.10    -0.00   0.05   0.08
  80   6    -0.00   0.08   0.05    -0.01   0.09  -0.07    -0.00  -0.02   0.02
  81   6    -0.00   0.04   0.01    -0.00   0.04  -0.02     0.00  -0.07  -0.03
  82   6    -0.00  -0.00  -0.06     0.00  -0.01   0.04     0.00  -0.12  -0.09
  83   6     0.01  -0.09  -0.04    -0.01   0.10  -0.12    -0.01   0.09   0.13
  84   6    -0.00  -0.01   0.02    -0.01   0.09  -0.11     0.00   0.02   0.07
  85   6    -0.01   0.04   0.06    -0.01   0.07  -0.08     0.01  -0.03   0.02
  86   6    -0.02   0.11   0.10    -0.00   0.04  -0.03     0.01  -0.10  -0.06
  87   6     0.08  -0.07  -0.03    -0.05  -0.15   0.09     0.05  -0.02  -0.01
  88   6     0.06  -0.08  -0.05    -0.04  -0.16   0.10     0.03  -0.05  -0.02
  89   6     0.02  -0.06  -0.03    -0.02  -0.11   0.07     0.01  -0.05  -0.00
  90   6    -0.01  -0.07  -0.05    -0.01  -0.10   0.08    -0.01  -0.08  -0.00
  91   6    -0.04  -0.07  -0.03     0.00  -0.11   0.07    -0.03  -0.08   0.01
  92   6    -0.08  -0.10  -0.04     0.02  -0.14   0.09    -0.06  -0.12   0.02
  93   6    -0.11  -0.08  -0.01     0.03  -0.13   0.07    -0.07  -0.09   0.02
  94   6    -0.08  -0.04   0.01     0.02  -0.08   0.04    -0.05  -0.03   0.03
  95   7    -0.05  -0.04   0.00     0.01  -0.09   0.05    -0.03  -0.04   0.02
  96   6    -0.09   0.00   0.04     0.03  -0.04   0.00    -0.06   0.03   0.03
  97   6    -0.07   0.05   0.06     0.02   0.03  -0.04    -0.05   0.08   0.03
  98   6    -0.09   0.09   0.08     0.03   0.08  -0.07    -0.06   0.14   0.04
  99   6    -0.07   0.12   0.09     0.02   0.13  -0.10    -0.04   0.15   0.05
 100   6    -0.03   0.09   0.08     0.00   0.10  -0.08    -0.02   0.10   0.06
 101   7    -0.04   0.06   0.06     0.01   0.05  -0.05    -0.03   0.07   0.05
 102   6    -0.00   0.10   0.09    -0.01   0.12  -0.10    -0.00   0.08   0.07
 103   6     0.03   0.09   0.08    -0.02   0.11  -0.08     0.02   0.07   0.07
 104   6     0.07   0.10   0.09    -0.04   0.14  -0.10     0.04   0.07   0.07
 105   6     0.09   0.07   0.07    -0.05   0.10  -0.07     0.06   0.07   0.06
 106   6     0.07   0.04   0.04    -0.04   0.04  -0.03     0.04   0.05   0.04
 107   7     0.03   0.05   0.05    -0.03   0.06  -0.05     0.02   0.06   0.05
 108   6     0.09  -0.00   0.02    -0.05  -0.03   0.01     0.05   0.03   0.02
 109   6     0.07  -0.04  -0.00    -0.04  -0.09   0.05     0.04   0.00   0.00
 110   7     0.03  -0.04  -0.01    -0.03  -0.09   0.05     0.02  -0.02   0.01
 111   1     0.03  -0.02  -0.01    -0.02  -0.05   0.03     0.02  -0.00  -0.01
 112   1     0.02  -0.03  -0.02    -0.01  -0.06   0.04     0.01  -0.02  -0.01
 113   1    -0.03  -0.04  -0.02     0.01  -0.05   0.03    -0.02  -0.05   0.00
 114   1    -0.04  -0.03  -0.00     0.01  -0.04   0.02    -0.03  -0.03   0.01
 115   1    -0.00  -0.01   0.00    -0.00  -0.02   0.01    -0.00  -0.00   0.01
 116   1    -0.04   0.00   0.01     0.01  -0.01   0.00    -0.02   0.01   0.01
 117   1    -0.03   0.03   0.02     0.01   0.02  -0.02    -0.02   0.05   0.01
 118   1    -0.02   0.04   0.03     0.00   0.05  -0.04    -0.01   0.05   0.02
 119   1     0.02   0.04   0.03    -0.01   0.05  -0.04     0.01   0.02   0.03
 120   1     0.04   0.02   0.02    -0.02   0.03  -0.02     0.02   0.02   0.02
 121   1     0.00   0.01   0.01    -0.00   0.01  -0.01     0.00   0.01   0.01
 122   1     0.03  -0.00   0.00    -0.02  -0.01   0.00     0.02   0.01   0.00
 123   6     0.02  -0.03  -0.08     0.03  -0.11   0.12    -0.12  -0.06  -0.09
 124   6     0.01  -0.02  -0.08     0.03  -0.10   0.12    -0.09  -0.10  -0.10
 125   6     0.01  -0.03  -0.07     0.02  -0.06   0.08    -0.04  -0.08  -0.08
 126   6     0.00  -0.02  -0.07     0.01  -0.05   0.07     0.00  -0.10  -0.09
 127   6    -0.01  -0.03  -0.08     0.01  -0.06   0.08     0.04  -0.08  -0.07
 128   6    -0.01  -0.02  -0.08     0.00  -0.08   0.10     0.10  -0.09  -0.09
 129   6    -0.02  -0.03  -0.08     0.00  -0.09   0.10     0.13  -0.04  -0.07
 130   6    -0.01  -0.05  -0.07     0.00  -0.07   0.08     0.10  -0.00  -0.04
 131   7    -0.01  -0.05  -0.08     0.00  -0.06   0.07     0.05  -0.03  -0.05
 132   6    -0.01  -0.06  -0.06    -0.00  -0.05   0.05     0.12   0.04  -0.01
 133   6    -0.01  -0.08  -0.06    -0.01  -0.00  -0.00     0.09   0.07   0.03
 134   6    -0.01  -0.10  -0.05    -0.01   0.03  -0.05     0.11   0.11   0.06
 135   6    -0.00  -0.11  -0.05    -0.01   0.07  -0.09     0.08   0.11   0.10
 136   6     0.00  -0.10  -0.05    -0.01   0.06  -0.08     0.03   0.09   0.09
 137   7     0.00  -0.09  -0.06    -0.00   0.02  -0.03     0.05   0.06   0.05
 138   6     0.01  -0.10  -0.05    -0.01   0.09  -0.10    -0.01   0.09   0.11
 139   6     0.01  -0.09  -0.05    -0.00   0.07  -0.09    -0.05   0.07   0.09
 140   6     0.02  -0.10  -0.05    -0.00   0.09  -0.10    -0.10   0.08   0.11
 141   6     0.03  -0.09  -0.05     0.01   0.05  -0.06    -0.14   0.06   0.07
 142   6     0.02  -0.07  -0.06     0.01   0.01  -0.01    -0.11   0.03   0.03
 143   7     0.01  -0.09  -0.06     0.01   0.03  -0.04    -0.06   0.04   0.05
 144   6     0.02  -0.06  -0.06     0.02  -0.05   0.05    -0.13   0.00  -0.02
 145   6     0.02  -0.04  -0.07     0.02  -0.07   0.08    -0.10  -0.03  -0.05
 146   7     0.01  -0.04  -0.08     0.02  -0.06   0.07    -0.06  -0.05  -0.05
 147   1     0.01  -0.01  -0.02     0.01  -0.04   0.04    -0.05  -0.02  -0.03
 148   1     0.00  -0.00  -0.02     0.01  -0.03   0.04    -0.03  -0.04  -0.04
 149   1    -0.01  -0.00  -0.02     0.00  -0.03   0.03     0.03  -0.04  -0.03
 150   1    -0.01  -0.01  -0.02    -0.00  -0.03   0.03     0.05  -0.01  -0.02
 151   1    -0.00  -0.02  -0.02     0.00  -0.01   0.01     0.00  -0.00  -0.01
 152   1    -0.01  -0.02  -0.02    -0.00  -0.02   0.02     0.05   0.02  -0.00
 153   1    -0.00  -0.03  -0.01    -0.00   0.01  -0.01     0.04   0.03   0.02
 154   1     0.00  -0.03  -0.01    -0.01   0.03  -0.04     0.02   0.04   0.04
 155   1     0.01  -0.03  -0.01    -0.00   0.04  -0.04    -0.03   0.03   0.04
 156   1     0.01  -0.03  -0.02     0.00   0.01  -0.02    -0.05   0.02   0.02
 157   1     0.00  -0.02  -0.02     0.00   0.00  -0.00    -0.01   0.01   0.01
 158   1     0.01  -0.02  -0.02     0.01  -0.02   0.02    -0.05   0.00  -0.01
                     16                     17                     18
                        a                      a                      a 
 Frequencies --    41.4225                42.3168                42.4219
 Red. masses --    10.9206                10.8932                11.0655
 Frc consts  --     0.0000                 0.0000                 0.0000
 IR Inten    --    23.5922                 8.8390                 1.3448
 Raman Activ --     0.0000                 0.0000                 0.0000
 Depolar     --     0.0000                 0.0000                 0.0000
 Atom AN      X      Y      Z        X      Y      Z        X      Y      Z
   1   6     0.02   0.03   0.06     0.01  -0.05  -0.10    -0.06  -0.10  -0.22
   2   6     0.02   0.04   0.07     0.00  -0.05  -0.11    -0.05  -0.11  -0.21
   3   6     0.01   0.02   0.03     0.00  -0.02  -0.05    -0.02  -0.04  -0.09
   4   6     0.00   0.01   0.00     0.00   0.01  -0.00     0.00  -0.00   0.01
   5   6    -0.00  -0.01  -0.04     0.01   0.03   0.04     0.00   0.05   0.10
   6   6     0.00  -0.03  -0.08     0.01   0.06   0.10    -0.01   0.11   0.21
   7   6     0.01  -0.03  -0.08     0.02   0.06   0.09    -0.02   0.10   0.21
   8   6     0.01  -0.01  -0.05     0.01   0.03   0.04    -0.03   0.02   0.10
   9   7     0.00   0.00  -0.03     0.01   0.02   0.02    -0.01   0.00   0.06
  10   6     0.01   0.01  -0.02     0.01   0.01  -0.01    -0.04  -0.03   0.01
  11   6     0.02   0.02   0.03     0.00  -0.02  -0.05    -0.05  -0.07  -0.09
  12   6     0.02   0.04   0.07    -0.01  -0.05  -0.11    -0.05  -0.11  -0.21
  13   6     0.02   0.03   0.08    -0.00  -0.06  -0.10    -0.06  -0.09  -0.21
  14   6     0.03   0.02   0.04     0.01  -0.03  -0.05    -0.07  -0.04  -0.09
  15   7     0.03   0.01   0.02     0.01  -0.01  -0.03    -0.07  -0.04  -0.04
  16   6     0.03  -0.00   0.01     0.02  -0.00   0.00    -0.07   0.02   0.00
  17   6     0.02  -0.02  -0.02     0.02   0.02   0.05    -0.06   0.06   0.09
  18   6     0.01  -0.04  -0.06     0.02   0.05   0.10    -0.03   0.11   0.21
  19   6     0.01  -0.04  -0.07     0.02   0.04   0.10    -0.02   0.12   0.20
  20   6     0.01  -0.03  -0.04     0.02   0.02   0.05    -0.03   0.08   0.08
  21   7     0.02  -0.02  -0.02     0.02   0.01   0.03    -0.06   0.06   0.04
  22   6     0.01  -0.02  -0.01     0.01  -0.01   0.00    -0.04   0.04  -0.01
  23   6     0.02   0.00   0.02     0.01  -0.03  -0.04    -0.04  -0.02  -0.10
  24   7     0.01   0.00   0.01     0.00  -0.01  -0.02    -0.02  -0.00  -0.05
  25   1     0.01   0.01   0.02     0.00  -0.02  -0.04    -0.02  -0.04  -0.08
  26   1     0.01   0.02   0.03     0.00  -0.02  -0.04    -0.02  -0.05  -0.08
  27   1    -0.00  -0.01  -0.03     0.01   0.02   0.04     0.00   0.05   0.08
  28   1     0.00  -0.01  -0.03     0.01   0.02   0.04    -0.01   0.04   0.08
  29   1    -0.00   0.01  -0.00    -0.00   0.00  -0.01     0.00  -0.02  -0.00
  30   1     0.00   0.00  -0.01     0.00   0.00  -0.00    -0.01  -0.01   0.00
[...]
  21   7     0.00   0.00  -0.00    -0.00  -0.00   0.00    -0.04  -0.03   0.02
  22   6     0.00   0.00  -0.00    -0.00  -0.00   0.00    -0.00  -0.00   0.00
  23   6    -0.00  -0.00   0.00     0.00  -0.00   0.00     0.00  -0.00   0.00
  24   7     0.00  -0.00  -0.00    -0.00   0.00  -0.00    -0.00   0.00  -0.00
  25   1    -0.00  -0.00   0.00    -0.00   0.00  -0.00    -0.00   0.00  -0.00
  26   1     0.00  -0.00   0.00    -0.00   0.00  -0.00    -0.00   0.00  -0.00
  27   1     0.00  -0.00  -0.00     0.00  -0.00  -0.00     0.00   0.00  -0.00
  28   1     0.00   0.00  -0.00     0.00   0.00  -0.00     0.00   0.00  -0.00
  29   1    -0.00  -0.00   0.00     0.01   0.00  -0.00     0.76   0.48  -0.31
  30   1     0.00   0.00  -0.00     0.00   0.00  -0.00     0.00   0.00  -0.00
  31   1     0.00   0.00  -0.00    -0.00   0.00  -0.00    -0.00   0.00  -0.00
  32   1    -0.00   0.00   0.00    -0.00   0.00  -0.00    -0.00   0.00  -0.00
  33   1    -0.00   0.00   0.00    -0.00  -0.00  -0.00     0.00  -0.00   0.00
  34   1    -0.00  -0.00   0.00     0.00  -0.00  -0.00     0.00   0.00  -0.00
  35   1    -0.00  -0.00   0.00     0.00   0.00  -0.00     0.00   0.00  -0.00
  36   1    -0.00  -0.00   0.00     0.00   0.00  -0.00     0.14   0.09  -0.06
  37   1    -0.00  -0.00   0.00     0.00   0.00  -0.00     0.00   0.00  -0.00
  38   6     0.00   0.00   0.00     0.00  -0.00  -0.00    -0.00   0.00   0.00
  39   6     0.00   0.00   0.00    -0.00   0.00   0.00     0.00  -0.00  -0.00
  40   6    -0.00  -0.00  -0.00    -0.00   0.00   0.00     0.00  -0.00  -0.00
  41   6    -0.00  -0.00  -0.00    -0.00  -0.00  -0.00    -0.00   0.00   0.00
  42   6    -0.00   0.00   0.00     0.00  -0.00  -0.00    -0.00   0.00   0.00
  43   6     0.00  -0.00  -0.00    -0.00   0.00   0.00     0.00  -0.00  -0.00
  44   6     0.00  -0.00  -0.00    -0.00   0.00   0.00     0.00  -0.00  -0.00
  45   6    -0.00  -0.00  -0.00     0.00  -0.00  -0.00    -0.00   0.00   0.00
  46   7    -0.00   0.00   0.00     0.19  -0.13  -0.12    -0.00   0.00   0.00
  47   6     0.00  -0.00  -0.00     0.00  -0.00  -0.00    -0.00   0.00   0.00
  48   6    -0.00  -0.00   0.00    -0.00   0.00   0.00     0.00  -0.00  -0.00
  49   6    -0.00  -0.00  -0.00    -0.00  -0.00  -0.00    -0.00   0.00   0.00
  50   6    -0.00  -0.00  -0.00    -0.00  -0.00  -0.00     0.00   0.00   0.00
  51   6    -0.00  -0.00  -0.00    -0.00   0.00   0.00     0.00  -0.00   0.00
  52   7     0.00   0.00   0.00    -0.00  -0.00  -0.00     0.00   0.00   0.00
  53   6    -0.00  -0.00  -0.00     0.00  -0.00  -0.00     0.00   0.00   0.00
  54   6     0.00   0.00   0.00     0.00   0.00   0.00    -0.00  -0.00  -0.00
  55   6    -0.00   0.00   0.00    -0.00   0.00   0.00     0.00   0.00   0.00
  56   6    -0.00   0.00   0.00    -0.00  -0.00  -0.00    -0.00  -0.00   0.00
  57   6     0.00  -0.00  -0.00     0.00  -0.00  -0.00     0.00   0.00   0.00
  58   7     0.00  -0.00  -0.00     0.03  -0.02  -0.02     0.00  -0.00  -0.00
  59   6     0.00   0.00   0.00     0.00  -0.00  -0.00    -0.00   0.00   0.00
  60   6    -0.00   0.00   0.00    -0.00  -0.00  -0.00     0.00   0.00   0.00
  61   7     0.00  -0.00  -0.00     0.00   0.00   0.00    -0.00  -0.00  -0.00
  62   1    -0.00  -0.00  -0.00     0.00   0.00   0.00    -0.00  -0.00  -0.00
  63   1     0.00   0.00  -0.00     0.00   0.00   0.00    -0.00  -0.00  -0.00
  64   1    -0.00  -0.00   0.00    -0.00   0.00   0.00     0.00  -0.00   0.00
  65   1    -0.00   0.00   0.00    -0.00   0.00   0.00     0.00  -0.00  -0.00
  66   1     0.00  -0.00  -0.00    -0.70   0.48   0.43     0.01  -0.00  -0.00
  67   1    -0.00   0.00   0.00    -0.00   0.00   0.00     0.00  -0.00  -0.00
  68   1     0.00   0.00   0.00     0.00   0.00   0.00     0.00  -0.00  -0.00
  69   1     0.00   0.00   0.00     0.00   0.00   0.00    -0.00  -0.00   0.00
  70   1     0.00   0.00   0.00    -0.00  -0.00  -0.00    -0.00  -0.00   0.00
  71   1     0.00  -0.00  -0.00    -0.00   0.00   0.00    -0.00  -0.00   0.00
  72   1     0.00  -0.00  -0.00    -0.00   0.00   0.00     0.00  -0.00  -0.00
  73   1    -0.00   0.00   0.00    -0.12   0.09   0.08    -0.00   0.00   0.00
  74   1     0.00  -0.00  -0.00    -0.00   0.00   0.00     0.00  -0.00  -0.00
  75   6    -0.00   0.00   0.00    -0.00  -0.00  -0.00    -0.00   0.00   0.00
  76   6     0.00  -0.00   0.00     0.00  -0.00  -0.00     0.00  -0.00  -0.00
  77   6    -0.00   0.00   0.00    -0.00   0.00  -0.00    -0.00   0.00  -0.00
  78   6     0.00  -0.00  -0.00    -0.00   0.00   0.00    -0.00   0.00  -0.00
  79   6    -0.00  -0.00   0.00    -0.00   0.00   0.00     0.00   0.00  -0.00
  80   6     0.00   0.00  -0.00     0.00   0.00   0.00     0.00   0.00  -0.00
  81   6    -0.00  -0.00  -0.00    -0.00   0.00   0.00    -0.00   0.00  -0.00
  82   6     0.00   0.00  -0.00     0.00   0.00   0.00     0.00   0.00  -0.00
  83   6    -0.00  -0.00   0.00    -0.00  -0.00   0.00     0.00   0.00  -0.00
  84   6     0.00   0.00  -0.00     0.00   0.00   0.00    -0.00  -0.00  -0.00
  85   6    -0.00  -0.00  -0.00    -0.00  -0.00   0.00     0.00  -0.00  -0.00
  86   6     0.00   0.00   0.00     0.00  -0.00  -0.00     0.00   0.00   0.00
  87   6     0.00  -0.00   0.00     0.00   0.00   0.00    -0.00  -0.00  -0.00
  88   6     0.00   0.00   0.00     0.00   0.00  -0.00     0.00  -0.00  -0.00
  89   6    -0.00   0.00   0.00     0.00   0.00   0.00     0.00   0.00  -0.00
  90   6    -0.00  -0.00  -0.00     0.00   0.00   0.00    -0.00  -0.00  -0.00
  91   6     0.00  -0.00  -0.00     0.00   0.00  -0.00     0.00   0.00   0.00
  92   6    -0.00   0.00   0.00     0.00  -0.00   0.00     0.00   0.00   0.00
  93   6    -0.00   0.00   0.00     0.00  -0.00  -0.00    -0.00   0.00   0.00
  94   6     0.00  -0.00   0.00    -0.00   0.00  -0.00     0.00   0.00   0.00
  95   7     0.12  -0.06  -0.15     0.00  -0.00  -0.00     0.00  -0.00  -0.00
  96   6     0.00  -0.00  -0.00     0.00  -0.00  -0.00    -0.00  -0.00  -0.00
  97   6    -0.00   0.00   0.00    -0.00   0.00   0.00     0.00  -0.00  -0.00
  98   6    -0.00  -0.00  -0.00     0.00  -0.00  -0.00     0.00  -0.00  -0.00
  99   6    -0.00  -0.00  -0.00     0.00   0.00   0.00    -0.00   0.00   0.00
 100   6     0.00  -0.00  -0.00     0.00   0.00  -0.00    -0.00  -0.00  -0.00
 101   7    -0.00  -0.00  -0.00     0.00   0.00  -0.00     0.00   0.00   0.00
 102   6     0.00   0.00   0.00     0.00   0.00   0.00    -0.00  -0.00  -0.00
 103   6    -0.00   0.00   0.00     0.00   0.00   0.00    -0.00   0.00   0.00
 104   6     0.00  -0.00  -0.00     0.00   0.00   0.00    -0.00   0.00  -0.00
 105   6     0.00  -0.00  -0.00    -0.00   0.00   0.00     0.00   0.00   0.00
 106   6    -0.00  -0.00  -0.00    -0.00   0.00  -0.00     0.00   0.00   0.00
 107   7    -0.10   0.05   0.12     0.00  -0.00  -0.00     0.00  -0.00  -0.00
 108   6    -0.00   0.00   0.00     0.00   0.00   0.00    -0.00   0.00   0.00
 109   6     0.00  -0.00  -0.00     0.00   0.00   0.00     0.00  -0.00  -0.00
 110   7     0.00   0.00   0.00    -0.00   0.00  -0.00    -0.00   0.00   0.00
 111   1     0.00   0.00   0.00     0.00   0.00  -0.00     0.00   0.00   0.00
 112   1     0.00   0.00   0.00    -0.00   0.00  -0.00    -0.00   0.00  -0.00
 113   1     0.00  -0.00  -0.00    -0.00   0.00   0.00    -0.00   0.00   0.00
 114   1    -0.00   0.00   0.00    -0.00   0.00   0.00     0.00  -0.00  -0.00
 115   1    -0.46   0.22   0.54    -0.00   0.00   0.00    -0.00   0.00   0.00
 116   1     0.00   0.00   0.00    -0.00   0.00   0.00    -0.00   0.00   0.00
 117   1    -0.00  -0.00  -0.00     0.00   0.00   0.00     0.00   0.00   0.00
 118   1    -0.00  -0.00  -0.00    -0.00   0.00   0.00     0.00   0.00  -0.00
 119   1    -0.00   0.00   0.00    -0.00   0.00   0.00     0.00   0.00   0.00
 120   1     0.00   0.00   0.00     0.00   0.00   0.00     0.00  -0.00  -0.00
 121   1     0.39  -0.18  -0.45    -0.00   0.00   0.00    -0.00   0.00   0.00
 122   1    -0.00  -0.00  -0.00     0.00   0.00   0.00    -0.00   0.00  -0.00
 123   6     0.00  -0.00  -0.00    -0.00  -0.00  -0.00    -0.00  -0.00  -0.00
 124   6     0.00  -0.00  -0.00     0.00   0.00   0.00    -0.00   0.00   0.00
 125   6    -0.00  -0.00   0.00     0.00   0.00  -0.00    -0.00  -0.00  -0.00
 126   6    -0.00   0.00   0.00     0.00  -0.00  -0.00    -0.00   0.00   0.00
 127   6     0.00   0.00   0.00    -0.00   0.00   0.00     0.00   0.00   0.00
 128   6     0.00  -0.00  -0.00    -0.00   0.00   0.00    -0.00  -0.00  -0.00
 129   6    -0.00  -0.00  -0.00     0.00  -0.00  -0.00    -0.00   0.00  -0.00
 130   6     0.00  -0.00  -0.00    -0.00   0.00   0.00     0.00  -0.00  -0.00
 131   7     0.00   0.00   0.00    -0.00  -0.00  -0.00     0.00   0.00   0.00
 132   6     0.00   0.00   0.00    -0.00  -0.00  -0.00    -0.00   0.00   0.00
 133   6    -0.00  -0.00  -0.00     0.00  -0.00  -0.00     0.00   0.00   0.00
 134   6    -0.00   0.00   0.00    -0.00  -0.00  -0.00    -0.00   0.00   0.00
 135   6    -0.00  -0.00  -0.00    -0.00   0.00   0.00    -0.00  -0.00  -0.00
 136   6    -0.00   0.00   0.00     0.00  -0.00  -0.00    -0.00  -0.00  -0.00
 137   7     0.00   0.00   0.00     0.00   0.00   0.00     0.00  -0.00  -0.00
 138   6     0.00   0.00   0.00     0.00   0.00   0.00    -0.00   0.00   0.00
 139   6     0.00  -0.00  -0.00    -0.00   0.00   0.00     0.00  -0.00  -0.00
 140   6    -0.00  -0.00  -0.00    -0.00   0.00   0.00    -0.00  -0.00  -0.00
 141   6     0.00  -0.00  -0.00     0.00   0.00   0.00    -0.00  -0.00  -0.00
 142   6     0.00  -0.00  -0.00    -0.00   0.00   0.00     0.00  -0.00  -0.00
 143   7    -0.00   0.00   0.00    -0.00  -0.00  -0.00     0.00   0.00   0.00
 144   6     0.00  -0.00  -0.00    -0.00  -0.00  -0.00    -0.00  -0.00  -0.00
 145   6    -0.00   0.00   0.00     0.00  -0.00  -0.00     0.00   0.00   0.00
 146   7     0.00  -0.00  -0.00    -0.00   0.00   0.00    -0.00  -0.00  -0.00
 147   1    -0.00   0.00   0.00    -0.00   0.00   0.00    -0.00   0.00   0.00
 148   1    -0.00  -0.00   0.00    -0.00   0.00   0.00     0.00   0.00  -0.00
 149   1    -0.00  -0.00  -0.00     0.00   0.00   0.00     0.00   0.00   0.00
 150   1    -0.00  -0.00  -0.00     0.00   0.00   0.00    -0.00   0.00   0.00
 151   1    -0.01  -0.01  -0.01     0.00   0.00   0.00    -0.00  -0.00  -0.00
 152   1     0.00  -0.00  -0.00    -0.00   0.00   0.00    -0.00  -0.00  -0.00
 153   1     0.00  -0.00  -0.00    -0.00   0.00   0.00     0.00  -0.00  -0.00
 154   1     0.00   0.00  -0.00     0.00   0.00  -0.00     0.00   0.00  -0.00
 155   1     0.00   0.00   0.00     0.00   0.00   0.00     0.00   0.00  -0.00
 156   1    -0.00   0.00   0.00    -0.00   0.00   0.00     0.00   0.00   0.00
 157   1     0.00   0.00   0.00     0.00   0.00   0.00    -0.00  -0.00  -0.00
 158   1    -0.00   0.00   0.00    -0.00   0.00   0.00    -0.00   0.00   0.00
                    466                    467
                        a                      a 
 Frequencies --  3356.1581              3357.2789
 Red. masses --     1.8882                 1.8878
 Frc consts  --     0.0000                 0.0000
 IR Inten    --   842.3611               568.9500
 Raman Activ --     0.0000                 0.0000
 Depolar     --     0.0000                 0.0000
 Atom AN      X      Y      Z        X      Y      Z        X      Y      Z
   1   6     0.00  -0.00   0.00     0.00  -0.00   0.00
   2   6     0.00  -0.00   0.00     0.00  -0.00   0.00
   3   6    -0.00  -0.00   0.00    -0.00   0.00   0.00
   4   6     0.00  -0.00   0.00    -0.00  -0.00   0.00
   5   6    -0.00   0.00  -0.00    -0.00   0.00  -0.00
   6   6    -0.00  -0.00   0.00    -0.00  -0.00   0.00
   7   6    -0.00  -0.00   0.00    -0.00  -0.00   0.00
   8   6     0.00   0.00  -0.00     0.00  -0.00   0.00
   9   7     0.00   0.00  -0.00     0.04   0.02  -0.02
  10   6     0.00  -0.00   0.00    -0.00  -0.00   0.00
  11   6    -0.00  -0.00   0.00    -0.00  -0.00   0.00
  12   6    -0.00   0.00  -0.00    -0.00   0.00   0.00
  13   6     0.00   0.00  -0.00     0.00   0.00  -0.00
  14   6     0.00  -0.00  -0.00     0.00   0.00  -0.00
  15   7    -0.00   0.00  -0.00    -0.00   0.00  -0.00
  16   6    -0.00  -0.00   0.00    -0.00  -0.00   0.00
  17   6    -0.00  -0.00   0.00    -0.00  -0.00   0.00
  18   6     0.00   0.00  -0.00     0.00   0.00  -0.00
  19   6     0.00   0.00  -0.00     0.00   0.00  -0.00
  20   6    -0.00   0.00  -0.00    -0.00   0.00   0.00
  21   7    -0.00  -0.00   0.00    -0.20  -0.13   0.08
  22   6    -0.00  -0.00   0.00    -0.00  -0.00   0.00
  23   6     0.00   0.00  -0.00     0.00   0.00  -0.00
  24   7     0.00  -0.00   0.00     0.00  -0.00   0.00
  25   1    -0.00   0.00  -0.00    -0.00   0.00  -0.00
  26   1    -0.00  -0.00  -0.00    -0.00   0.00   0.00
  27   1     0.00  -0.00  -0.00     0.00   0.00  -0.00
  28   1    -0.00  -0.00  -0.00     0.00   0.00  -0.00
  29   1    -0.00  -0.00   0.00    -0.14  -0.09   0.06
  30   1     0.00   0.00  -0.00     0.00   0.00  -0.00
  31   1    -0.00  -0.00  -0.00    -0.00   0.00  -0.00
  32   1    -0.00  -0.00  -0.00    -0.00   0.00  -0.00
  33   1    -0.00  -0.00  -0.00     0.00  -0.00   0.00
  34   1     0.00  -0.00  -0.00     0.00  -0.00  -0.00
  35   1     0.00   0.00  -0.00     0.00   0.00  -0.00
  36   1     0.00   0.00  -0.00     0.75   0.49  -0.31
  37   1     0.00   0.00  -0.00     0.00   0.00  -0.00
  38   6    -0.00  -0.00  -0.00    -0.00   0.00   0.00
  39   6    -0.00  -0.00  -0.00     0.00   0.00   0.00
  40   6     0.00  -0.00  -0.00     0.00  -0.00   0.00
  41   6     0.00  -0.00  -0.00    -0.00   0.00   0.00
  42   6     0.00   0.00   0.00    -0.00  -0.00  -0.00
  43   6     0.00  -0.00  -0.00     0.00  -0.00  -0.00
  44   6     0.00  -0.00  -0.00    -0.00   0.00   0.00
  45   6    -0.00  -0.00  -0.00     0.00   0.00   0.00
  46   7    -0.03   0.02   0.02    -0.00   0.00   0.00
  47   6     0.00  -0.00  -0.00    -0.00   0.00   0.00
  48   6     0.00  -0.00  -0.00     0.00   0.00   0.00
  49   6     0.00  -0.00  -0.00    -0.00   0.00   0.00
  50   6    -0.00   0.00   0.00     0.00  -0.00  -0.00
  51   6    -0.00   0.00   0.00     0.00  -0.00  -0.00
  52   7     0.00   0.00   0.00    -0.00  -0.00  -0.00
  53   6     0.00  -0.00  -0.00     0.00   0.00   0.00
  54   6     0.00  -0.00  -0.00    -0.00   0.00   0.00
  55   6    -0.00   0.00   0.00     0.00  -0.00  -0.00
  56   6    -0.00   0.00   0.00     0.00  -0.00  -0.00
  57   6     0.00  -0.00  -0.00    -0.00   0.00   0.00
  58   7     0.19  -0.13  -0.12    -0.00   0.00   0.00
  59   6     0.00  -0.00  -0.00    -0.00   0.00   0.00
  60   6    -0.00   0.00   0.00     0.00  -0.00  -0.00
  61   7    -0.00  -0.00  -0.00     0.00   0.00   0.00
  62   1     0.00   0.00   0.00    -0.00  -0.00  -0.00
  63   1     0.00  -0.00  -0.00    -0.00  -0.00  -0.00
  64   1    -0.00   0.00   0.00     0.00  -0.00  -0.00
  65   1    -0.00   0.00   0.00     0.00  -0.00  -0.00
  66   1     0.13  -0.08  -0.08     0.00  -0.00  -0.00
  67   1    -0.00   0.00   0.00     0.00  -0.00  -0.00
  68   1     0.00   0.00   0.00    -0.00  -0.00  -0.00
  69   1     0.00   0.00   0.00    -0.00  -0.00  -0.00
  70   1    -0.00  -0.00  -0.00    -0.00  -0.00   0.00
  71   1    -0.00   0.00   0.00    -0.00  -0.00   0.00
  72   1    -0.00   0.00   0.00     0.00  -0.00  -0.00
  73   1    -0.70   0.48   0.43     0.00  -0.00  -0.00
  74   1    -0.00   0.00   0.00     0.00  -0.00  -0.00
  75   6    -0.00   0.00  -0.00     0.00  -0.00   0.00
  76   6     0.00  -0.00  -0.00    -0.00   0.00   0.00
  77   6    -0.00  -0.00  -0.00     0.00  -0.00  -0.00
  78   6    -0.00   0.00  -0.00    -0.00   0.00  -0.00
  79   6    -0.00   0.00   0.00     0.00   0.00  -0.00
  80   6    -0.00   0.00   0.00    -0.00   0.00   0.00
  81   6     0.00   0.00   0.00     0.00   0.00  -0.00
  82   6    -0.00  -0.00   0.00     0.00   0.00  -0.00
  83   6     0.00   0.00  -0.00     0.00   0.00  -0.00
  84   6    -0.00  -0.00   0.00     0.00  -0.00   0.00
  85   6     0.00   0.00  -0.00    -0.00  -0.00   0.00
  86   6    -0.00  -0.00  -0.00     0.00   0.00   0.00
  87   6    -0.00  -0.00  -0.00    -0.00  -0.00  -0.00
  88   6    -0.00   0.00  -0.00    -0.00  -0.00  -0.00
  89   6     0.00  -0.00  -0.00     0.00  -0.00  -0.00
  90   6     0.00   0.00   0.00     0.00  -0.00   0.00
  91   6     0.00   0.00   0.00     0.00   0.00  -0.00
  92   6    -0.00   0.00   0.00     0.00   0.00   0.00
  93   6    -0.00   0.00   0.00    -0.00   0.00   0.00
  94   6    -0.00  -0.00  -0.00     0.00   0.00   0.00
  95   7    -0.00   0.00   0.00     0.00  -0.00  -0.00
  96   6     0.00   0.00   0.00    -0.00   0.00  -0.00
  97   6    -0.00   0.00   0.00     0.00  -0.00  -0.00
  98   6     0.00   0.00   0.00    -0.00   0.00   0.00
  99   6     0.00   0.00   0.00     0.00   0.00   0.00
 100   6    -0.00   0.00  -0.00    -0.00   0.00   0.00
 101   7     0.00  -0.00  -0.00    -0.00   0.00   0.00
 102   6     0.00   0.00   0.00    -0.00   0.00   0.00
 103   6    -0.00   0.00   0.00    -0.00   0.00  -0.00
 104   6     0.00  -0.00  -0.00     0.00  -0.00  -0.00
 105   6     0.00  -0.00  -0.00    -0.00  -0.00  -0.00
 106   6    -0.00  -0.00  -0.00     0.00   0.00   0.00
 107   7     0.00  -0.00  -0.00     0.00  -0.00  -0.00
 108   6     0.00  -0.00  -0.00    -0.00  -0.00  -0.00
 109   6    -0.00   0.00   0.00     0.00  -0.00  -0.00
 110   7     0.00  -0.00  -0.00    -0.00   0.00   0.00
 111   1     0.00   0.00   0.00     0.00   0.00   0.00
 112   1     0.00  -0.00   0.00     0.00   0.00  -0.00
 113   1     0.00  -0.00  -0.00    -0.00   0.00   0.00
 114   1    -0.00  -0.00  -0.00     0.00  -0.00  -0.00
 115   1     0.00  -0.00  -0.00    -0.00   0.00   0.00
 116   1    -0.00  -0.00  -0.00    -0.00  -0.00  -0.00
 117   1    -0.00  -0.00  -0.00    -0.00  -0.00  -0.00
 118   1    -0.00   0.00   0.00    -0.00   0.00  -0.00
 119   1    -0.00   0.00   0.00    -0.00   0.00   0.00
 120   1     0.00   0.00   0.00     0.00   0.00   0.00
 121   1    -0.00   0.00   0.00    -0.00   0.00   0.00
 122   1     0.00   0.00   0.00     0.00   0.00   0.00
 123   6    -0.00   0.00   0.00    -0.00  -0.00  -0.00
 124   6    -0.00   0.00   0.00     0.00   0.00   0.00
 125   6    -0.00   0.00   0.00     0.00  -0.00  -0.00
 126   6     0.00   0.00   0.00    -0.00  -0.00   0.00
 127   6    -0.00  -0.00  -0.00     0.00   0.00   0.00
 128   6    -0.00  -0.00  -0.00    -0.00  -0.00  -0.00
 129   6     0.00  -0.00  -0.00    -0.00  -0.00  -0.00
 130   6    -0.00  -0.00  -0.00     0.00  -0.00  -0.00
 131   7    -0.00  -0.00  -0.00    -0.00   0.00   0.00
 132   6     0.00  -0.00  -0.00    -0.00  -0.00   0.00
 133   6    -0.00  -0.00  -0.00     0.00   0.00   0.00
 134   6    -0.00  -0.00  -0.00    -0.00  -0.00  -0.00
 135   6     0.00   0.00  -0.00     0.00  -0.00  -0.00
 136   6    -0.00   0.00   0.00    -0.00  -0.00  -0.00
 137   7     0.00   0.00   0.00    -0.00  -0.00  -0.00
 138   6    -0.00   0.00   0.00    -0.00   0.00   0.00
 139   6    -0.00  -0.00  -0.00    -0.00   0.00   0.00
 140   6     0.00   0.00   0.00     0.00   0.00   0.00
 141   6     0.00   0.00   0.00    -0.00   0.00   0.00
 142   6    -0.00   0.00   0.00     0.00  -0.00  -0.00
 143   7    -0.00  -0.00  -0.00     0.00   0.00   0.00
 144   6     0.00   0.00   0.00    -0.00   0.00   0.00
 145   6    -0.00  -0.00  -0.00     0.00   0.00   0.00
 146   7     0.00   0.00   0.00    -0.00  -0.00  -0.00
 147   1     0.00  -0.00  -0.00     0.00   0.00   0.00
 148   1     0.00   0.00  -0.00     0.00   0.00  -0.00
 149   1     0.00   0.00   0.00     0.00   0.00   0.00
 150   1     0.00   0.00   0.00    -0.00   0.00   0.00
 151   1     0.00   0.00   0.00     0.00   0.00   0.00
 152   1    -0.00   0.00   0.00    -0.00   0.00   0.00
 153   1    -0.00   0.00   0.00    -0.00   0.00   0.00
 154   1    -0.00  -0.00   0.00    -0.00  -0.00   0.00
 155   1    -0.00  -0.00   0.00    -0.00  -0.00  -0.00
 156   1    -0.00  -0.00  -0.00     0.00  -0.00  -0.00
 157   1     0.00   0.00   0.00    -0.00  -0.00  -0.00
 158   1     0.00  -0.00  -0.00     0.00  -0.00  -0.00
