      -----------------------------------------------------------      
     |                   =====================                   |     
     |                           x T B                           |     
     |                   =====================                   |     
     |                         S. Grimme                         |     
     |          Mulliken Center for Theoretical Chemistry        |     
     |                    University of Bonn                     |     
      -----------------------------------------------------------      

   * xtb version 6.4.1 (bd6e46d) compiled by 'conda@4901f00b25ba' on 2021-06-10

   xtb is free software: you can redistribute it and/or modify it under
   the terms of the GNU Lesser General Public License as published by
   the Free Software Foundation, either version 3 of the License, or
   (at your option) any later version.
   
   xtb is distributed in the hope that it will be useful,
   but WITHOUT ANY WARRANTY; without even the implied warranty of
   MERCHANTABILITY or FITNESS FOR A PARTICULAR PURPOSE.  See the
   GNU Lesser General Public License for more details.
   
   Cite this work as:
   * C. Bannwarth, E. Caldeweyher, S. Ehlert, A. Hansen, P. Pracht,
     J. Seibert, S. Spicher, S. Grimme, WIREs Comput. Mol. Sci., 2020, 11,
     e01493. DOI: 10.1002/wcms.1493
   
   for GFN2-xTB:
   * C. Bannwarth, S. Ehlert and S. Grimme., J. Chem. Theory Comput., 2019,
     15, 1652-1671. DOI: 10.1021/acs.jctc.8b01176
   for GFN1-xTB:
   * S. Grimme, C. Bannwarth, P. Shushkov, J. Chem. Theory Comput., 2017,
     13, 1989-2009. DOI: 10.1021/acs.jctc.7b00118
   for GFN0-xTB:
   * P. Pracht, E. Caldeweyher, S. Ehlert, S. Grimme, ChemRxiv, 2019, preprint.
     DOI: 10.26434/chemrxiv.8326202.v1
   for GFN-FF:
   * S. Spicher and S. Grimme, Angew. Chem. Int. Ed., 2020, 59, 15665-15673.
     DOI: 10.1002/anie.202004239
   
   for DFT-D4:
   * E. Caldeweyher, C. Bannwarth and S. Grimme, J. Chem. Phys., 2017,
     147, 034112. DOI: 10.1063/1.4993215
   * E. Caldeweyher, S. Ehlert, A. Hansen, H. Neugebauer, S. Spicher,
     C. Bannwarth and S. Grimme, J. Chem. Phys., 2019, 150, 154122.
     DOI: 10.1063/1.5090222
   * E. Caldeweyher, J.-M. Mewes, S. Ehlert and S. Grimme, Phys. Chem. Chem. Phys.
     2020, 22, 8499-8512. DOI: 10.1039/D0CP00502A
   
   for sTDA-xTB:
   * S. Grimme and C. Bannwarth, J. Chem. Phys., 2016, 145, 054103.
     DOI: 10.1063/1.4959605
   
   in the mass-spec context:
   * V. Asgeirsson, C. Bauer and S. Grimme, Chem. Sci., 2017, 8, 4879.
     DOI: 10.1039/c7sc00601b
   * J. Koopman and S. Grimme, ACS Omega 2019, 4, 12, 15120-15133.
     DOI: 10.1021/acsomega.9b02011
   
   for metadynamics refer to:
   * S. Grimme, J. Chem. Theory Comput., 2019, 155, 2847-2862
     DOI: 10.1021/acs.jctc.9b00143
   
   for SPH calculations refer to:
   * S. Spicher and S. Grimme, J. Chem. Theory Comput., 2021, 17, 1701-1714
     DOI: 10.1021/acs.jctc.0c01306
   
   with help from (in alphabetical order)
   P. Atkinson, C. Bannwarth, F. Bohle, G. Brandenburg, E. Caldeweyher
   M. Checinski, S. Dohm, S. Ehlert, S. Ehrlich, I. Gerasimov, J. Koopman
   C. Lavigne, S. Lehtola, F. März, M. Müller, F. Musil, H. Neugebauer
   J. Pisarek, C. Plett, P. Pracht, J. Seibert, P. Shushkov, S. Spicher
   M. Stahn, M. Steiner, T. Strunk, J. Stückrath, T. Rose, and J. Unsleber
   
 * started run on 2021/11/18 at 17:42:27.011     

           -------------------------------------------------
          |                Calculation Setup                |
           -------------------------------------------------

          program call               : /home/jeff/miniconda3/bin/xtb input_structure_1.xyz --gfn 2 --ohess normal --parallel 1 --etemp 300 --chrg 0 --uhf 0 -I det_control.in
          hostname                   : jelfscompute1
          coordinate file            : input_structure_1.xyz
          omp threads                :                     1
          number of atoms            :                   158
          number of electrons        :                   498
          charge                     :                     0
          spin                       :                   0.0
          first test random number   :      0.57060987353049

   ID    Z sym.   atoms
    1    6 C      1-8, 10-14, 16-20, 22, 23, 38-45, 47-51, 53-57, 59, 60,
                  75-94, 96-100, 102-106, 108, 109, 123-130, 132-136,
                  138-142, 144, 145
    2    7 N      9, 15, 21, 24, 46, 52, 58, 61, 95, 101, 107, 110, 131, 137,
                  143, 146
    3    1 H      25-37, 62-74, 111-122, 147-158

           -------------------------------------------------
          |                 G F N 2 - x T B                 |
           -------------------------------------------------

        Reference                      10.1021/acs.jctc.8b01176
      * Hamiltonian:
        H0-scaling (s, p, d)           1.850000    2.230000    2.230000
        zeta-weighting                 0.500000
      * Dispersion:
        s8                             2.700000
        a1                             0.520000
        a2                             5.000000
        s9                             5.000000
      * Repulsion:
        kExp                           1.500000    1.000000
        rExp                           1.000000
      * Coulomb:
        alpha                          2.000000
        third order                    shell-resolved
        anisotropic                    true
        a3                             3.000000
        a5                             4.000000
        cn-shift                       1.200000
        cn-exp                         4.000000
        max-rad                        5.000000


          ...................................................
          :                      SETUP                      :
          :.................................................:
          :  # basis functions                 482          :
          :  # atomic orbitals                 482          :
          :  # shells                          266          :
          :  # electrons                       498          :
          :  max. iterations                   250          :
          :  Hamiltonian                  GFN2-xTB          :
          :  restarted?                      false          :
          :  GBSA solvation                  false          :
          :  PC potential                    false          :
          :  electronic temp.          300.0000000     K    :
          :  accuracy                    1.0000000          :
          :  -> integral cutoff          0.2500000E+02      :
          :  -> integral neglect         0.1000000E-07      :
          :  -> SCF convergence          0.1000000E-05 Eh   :
          :  -> wf. convergence          0.1000000E-03 e    :
          :  Broyden damping             0.4000000          :
          ...................................................

 iter      E             dE          RMSdq      gap      omega  full diag
   1   -272.8378831 -0.272838E+03  0.531E+00    0.62       0.0  T
   2   -273.2442821 -0.406399E+00  0.333E+00    0.70       1.0  T
   3   -273.1064409  0.137841E+00  0.140E+00    0.65       1.0  T
   4   -273.0056326  0.100808E+00  0.105E+00    0.63       1.0  T
   5   -273.2617984 -0.256166E+00  0.399E-01    0.72       1.0  T
   6   -273.2979306 -0.361322E-01  0.176E-01    0.70       1.0  T
   7   -273.3037428 -0.581224E-02  0.766E-02    0.71       1.0  T
   8   -273.3036136  0.129192E-03  0.681E-02    0.70       1.0  T
   9   -273.3044242 -0.810550E-03  0.352E-02    0.70       1.0  T
  10   -273.3046108 -0.186643E-03  0.202E-02    0.70       1.0  T
  11   -273.3046788 -0.679830E-04  0.977E-03    0.70       1.0  T
  12   -273.3046926 -0.137364E-04  0.512E-03    0.70       1.6  T
  13   -273.3046977 -0.512543E-05  0.235E-03    0.70       3.4  T
  14   -273.3046989 -0.123864E-05  0.870E-04    0.70       9.1  T
  15   -273.3046990 -0.922584E-07  0.526E-04    0.70      15.1  T
  16   -273.3046991 -0.394621E-07  0.321E-04    0.70      24.8  T

   *** convergence criteria satisfied after 16 iterations ***

         #    Occupation            Energy/Eh            Energy/eV
      -------------------------------------------------------------
         1        2.0000           -0.6888301             -18.7440
       ...           ...                  ...                  ...
       243        2.0000           -0.3536299              -9.6228
       244        2.0000           -0.3535663              -9.6210
       245        2.0000           -0.3456082              -9.4045
       246        2.0000           -0.3445319              -9.3752
       247        2.0000           -0.3418313              -9.3017
       248        2.0000           -0.3404749              -9.2648
       249        2.0000           -0.3376028              -9.1866 (HOMO)
       250        0.0000           -0.3117543              -8.4833 (LUMO)
       251        0.0000           -0.3099801              -8.4350
       252                         -0.3077454              -8.3742
       253                         -0.3042480              -8.2790
       254                         -0.2933002              -7.9811
       ...                                ...                  ...
       482                          1.5432601              41.9942
      -------------------------------------------------------------
                  HL-Gap            0.0258484 Eh            0.7034 eV
             Fermi-level           -0.3247247 Eh           -8.8362 eV

 SCC (total)                   0 d,  0 h,  0 min,  1.134 sec
 SCC setup                      ...        0 min,  0.004 sec (  0.374%)
 Dispersion                     ...        0 min,  0.009 sec (  0.815%)
 classical contributions        ...        0 min,  0.001 sec (  0.109%)
 integral evaluation            ...        0 min,  0.073 sec (  6.422%)
 iterations                     ...        0 min,  0.825 sec ( 72.753%)
 molecular gradient             ...        0 min,  0.216 sec ( 19.014%)
 printout                       ...        0 min,  0.006 sec (  0.511%)

         :::::::::::::::::::::::::::::::::::::::::::::::::::::
         ::                     SUMMARY                     ::
         :::::::::::::::::::::::::::::::::::::::::::::::::::::
         :: total energy            -268.391925220583 Eh    ::
         :: gradient norm              0.466339242650 Eh/a0 ::
         :: HOMO-LUMO gap              0.703371280871 eV    ::
         ::.................................................::
         :: SCC energy              -273.304699057986 Eh    ::
         :: -> isotropic ES            0.154159605011 Eh    ::
         :: -> anisotropic ES          0.002647332985 Eh    ::
         :: -> anisotropic XC          0.206928617173 Eh    ::
         :: -> dispersion             -0.216873730789 Eh    ::
         :: repulsion energy           4.913166080884 Eh    ::
         :: add. restraining           0.000000000000 Eh    ::
         :: total charge              -0.000000000211 e     ::
         :::::::::::::::::::::::::::::::::::::::::::::::::::::

      ----------------------------------------------------------- 
     |                   =====================                   |
     |                        A N C O P T                        |
     |                   =====================                   |
     |               Approximate Normal Coordinate               |
     |                Rational Function Optimizer                |
      ----------------------------------------------------------- 

          ...................................................
          :                      SETUP                      :
          :.................................................:
          :   optimization level            normal          :
          :   max. optcycles                   474          :
          :   ANC micro-cycles                  20          :
          :   degrees of freedom               468          :
          :.................................................:
          :   RF solver                   davidson          :
          :   write xtbopt.log                true          :
          :   linear?                        false          :
          :   energy convergence         0.5000000E-05 Eh   :
          :   grad. convergence          0.1000000E-02 Eh/α :
          :   maximium RF displ.         1.0000000          :
          :   Hlow (freq-cutoff)         0.1000000E-01      :
          :   Hmax (freq-cutoff)         5.0000000          :
          :   S6 in model hess.         20.0000000          :
          ...................................................

generating ANC from model Hessian ...
Using Lindh-Hessian (1995)
 Shifting diagonal of input Hessian by    1.0000363727665086E-002
 Lowest  eigenvalues of input Hessian
    0.010000    0.000000    0.000000    0.000000    0.000000    0.000000
    0.000000    0.010002    0.010003    0.010003    0.010008    0.010009
    0.010014    0.010023    0.010025    0.010050    0.010098    0.010156
 Highest eigenvalues
    2.290361    2.290797    2.311550    2.713558    2.734013    2.761624


........................................................................
.............................. CYCLE    1 ..............................
........................................................................
   1   -273.3046991 -0.273305E+03  0.162E-04    0.70       0.0  T
   2   -273.3046991  0.151998E-07  0.271E-04    0.70      29.4  T
   3   -273.3046991 -0.196964E-07  0.701E-05    0.70     113.5  T
     SCC iter.                  ...        0 min,  0.154 sec
     gradient                   ...        0 min,  0.214 sec
 * total energy  :  -268.3919252 Eh     change       -0.2130270E-07 Eh
   gradient norm :     0.4663382 Eh/α   predicted     0.0000000E+00 (-100.00%)
   displ. norm   :     0.5731691 α      lambda       -0.2061324E+00
   maximum displ.:     0.1770912 α      in ANC's #233, #296, #225, ...

........................................................................
.............................. CYCLE    2 ..............................
........................................................................
   1   -273.4404083 -0.273440E+03  0.306E-01    0.67       0.0  T
   2   -273.4415749 -0.116660E-02  0.184E-01    0.68       1.0  T
   3   -273.4400342  0.154069E-02  0.106E-01    0.67       1.0  T
   4   -273.4407108 -0.676614E-03  0.720E-02    0.67       1.0  T
   5   -273.4415482 -0.837349E-03  0.418E-02    0.67       1.0  T
   6   -273.4419859 -0.437727E-03  0.120E-02    0.67       1.0  T
   7   -273.4420132 -0.272901E-04  0.469E-03    0.67       1.7  T
   8   -273.4420108  0.237920E-05  0.472E-03    0.67       1.7  T
   9   -273.4420152 -0.439944E-05  0.177E-03    0.67       4.5  T
  10   -273.4420159 -0.682796E-06  0.726E-04    0.67      11.0  T
  11   -273.4420160 -0.943156E-07  0.326E-04    0.67      24.4  T
     SCC iter.                  ...        0 min,  0.553 sec
     gradient                   ...        0 min,  0.214 sec
 * total energy  :  -268.5553037 Eh     change       -0.1633785E+00 Eh
   gradient norm :     0.2466992 Eh/α   predicted    -0.1370263E+00 ( -16.13%)
   displ. norm   :     0.6432266 α      lambda       -0.1235356E+00
   maximum displ.:     0.1941118 α      in ANC's #233, #79, #225, ...

........................................................................
.............................. CYCLE    3 ..............................
........................................................................
   1   -273.5797053 -0.273580E+03  0.303E-01    0.62       0.0  T
   2   -273.5807231 -0.101785E-02  0.181E-01    0.63       1.0  T
   3   -273.5792529  0.147020E-02  0.103E-01    0.63       1.0  T
   4   -273.5804930 -0.124010E-02  0.541E-02    0.63       1.0  T
   5   -273.5808761 -0.383086E-03  0.309E-02    0.63       1.0  T
   6   -273.5811117 -0.235524E-03  0.122E-02    0.63       1.0  T
   7   -273.5811470 -0.353657E-04  0.470E-03    0.63       1.7  T
   8   -273.5811458  0.124722E-05  0.449E-03    0.63       1.8  T
   9   -273.5811498 -0.400233E-05  0.176E-03    0.63       4.5  T
  10   -273.5811504 -0.644673E-06  0.639E-04    0.63      12.5  T
  11   -273.5811505 -0.595081E-07  0.340E-04    0.63      23.4  T
     SCC iter.                  ...        0 min,  0.552 sec
     gradient                   ...        0 min,  0.214 sec
 * total energy  :  -268.6394947 Eh     change       -0.8419097E-01 Eh
   gradient norm :     0.0850482 Eh/α   predicted    -0.8732437E-01 (   3.72%)
   displ. norm   :     0.7289209 α      lambda       -0.4836888E-01
   maximum displ.:     0.3022346 α      in ANC's #79, #73, #77, ...

........................................................................
.............................. CYCLE    4 ..............................
........................................................................
   1   -273.6545527 -0.273655E+03  0.218E-01    0.64       0.0  T
   2   -273.6546022 -0.494816E-04  0.129E-01    0.65       1.0  T
   3   -273.6529126  0.168954E-02  0.863E-02    0.64       1.0  T
   4   -273.6545035 -0.159084E-02  0.288E-02    0.64       1.0  T
   5   -273.6546930 -0.189556E-03  0.102E-02    0.64       1.0  T
   6   -273.6547157 -0.227333E-04  0.390E-03    0.64       2.0  T
   7   -273.6547169 -0.114169E-05  0.262E-03    0.64       3.0  T
   8   -273.6547178 -0.876917E-06  0.159E-03    0.64       5.0  T
   9   -273.6547184 -0.618726E-06  0.471E-04    0.64      16.9  T
  10   -273.6547184 -0.339314E-07  0.241E-04    0.64      33.0  T
     SCC iter.                  ...        0 min,  0.501 sec
     gradient                   ...        0 min,  0.215 sec
 * total energy  :  -268.6801871 Eh     change       -0.4069240E-01 Eh
   gradient norm :     0.0601237 Eh/α   predicted    -0.3703433E-01 (  -8.99%)
   displ. norm   :     0.8388205 α      lambda       -0.3907632E-01
   maximum displ.:     0.3617906 α      in ANC's #79, #77, #73, ...

........................................................................
.............................. CYCLE    5 ..............................
........................................................................
   1   -273.7094318 -0.273709E+03  0.203E-01    0.68       0.0  T
   2   -273.7094567 -0.249880E-04  0.119E-01    0.68       1.0  T
   3   -273.7084429  0.101385E-02  0.662E-02    0.68       1.0  T
   4   -273.7094088 -0.965883E-03  0.205E-02    0.68       1.0  T
   5   -273.7095135 -0.104671E-03  0.618E-03    0.68       1.3  T
   6   -273.7095195 -0.604112E-05  0.330E-03    0.68       2.4  T
   7   -273.7095200 -0.537931E-06  0.233E-03    0.68       3.4  T
   8   -273.7095212 -0.114163E-05  0.112E-03    0.68       7.1  T
   9   -273.7095215 -0.308924E-06  0.432E-04    0.68      18.4  T
  10   -273.7095215 -0.410283E-07  0.208E-04    0.68      38.3  T
     SCC iter.                  ...        0 min,  0.500 sec
     gradient                   ...        0 min,  0.215 sec
 * total energy  :  -268.7148315 Eh     change       -0.3464444E-01 Eh
   gradient norm :     0.0470302 Eh/α   predicted    -0.3328581E-01 (  -3.92%)
   displ. norm   :     0.8807069 α      lambda       -0.3322034E-01
   maximum displ.:     0.3678509 α      in ANC's #79, #77, #73, ...

........................................................................
.............................. CYCLE    6 ..............................
........................................................................
   1   -273.7599927 -0.273760E+03  0.189E-01    0.74       0.0  T
   2   -273.7600451 -0.524102E-04  0.110E-01    0.74       1.0  T
   3   -273.7596540  0.391048E-03  0.429E-02    0.74       1.0  T
   4   -273.7600036 -0.349539E-03  0.164E-02    0.74       1.0  T
   5   -273.7600779 -0.742762E-04  0.500E-03    0.74       1.6  T
   6   -273.7600817 -0.388391E-05  0.273E-03    0.74       2.9  T
   7   -273.7600825 -0.724074E-06  0.173E-03    0.74       4.6  T
   8   -273.7600828 -0.383029E-06  0.111E-03    0.74       7.2  T
   9   -273.7600832 -0.367523E-06  0.245E-04    0.74      32.5  T
  10   -273.7600832 -0.100326E-07  0.126E-04    0.74      63.2  T
     SCC iter.                  ...        0 min,  0.501 sec
     gradient                   ...        0 min,  0.215 sec
 * total energy  :  -268.7451315 Eh     change       -0.3029998E-01 Eh
   gradient norm :     0.0413088 Eh/α   predicted    -0.2949376E-01 (  -2.66%)
   displ. norm   :     0.9006692 α      lambda       -0.2918192E-01
   maximum displ.:     0.3533712 α      in ANC's #79, #33, #77, ...

........................................................................
.............................. CYCLE    7 ..............................
........................................................................
   1   -273.8013287 -0.273801E+03  0.188E-01    0.80       0.0  T
   2   -273.8013838 -0.551169E-04  0.110E-01    0.80       1.0  T
   3   -273.8011811  0.202742E-03  0.324E-02    0.80       1.0  T
   4   -273.8013749 -0.193802E-03  0.111E-02    0.80       1.0  T
   5   -273.8014074 -0.325278E-04  0.489E-03    0.80       1.6  T
   6   -273.8014124 -0.497865E-05  0.245E-03    0.80       3.3  T
   7   -273.8014129 -0.435736E-06  0.164E-03    0.80       4.8  T
   8   -273.8014134 -0.567758E-06  0.709E-04    0.80      11.2  T
   9   -273.8014135 -0.121158E-06  0.220E-04    0.80      36.2  T
     SCC iter.                  ...        0 min,  0.452 sec
     gradient                   ...        0 min,  0.214 sec
 * total energy  :  -268.7714507 Eh     change       -0.2631924E-01 Eh
   gradient norm :     0.0338687 Eh/α   predicted    -0.2642722E-01 (   0.41%)
   displ. norm   :     0.9164729 α      lambda       -0.2514600E-01
   maximum displ.:     0.3226370 α      in ANC's #79, #33, #77, ...

........................................................................
.............................. CYCLE    8 ..............................
........................................................................
   1   -273.8396423 -0.273840E+03  0.198E-01    0.86       0.0  T
   2   -273.8396876 -0.452619E-04  0.116E-01    0.86       1.0  T
   3   -273.8394172  0.270319E-03  0.355E-02    0.86       1.0  T
   4   -273.8396784 -0.261169E-03  0.122E-02    0.86       1.0  T
   5   -273.8397178 -0.393478E-04  0.366E-03    0.86       2.2  T
   6   -273.8397184 -0.662338E-06  0.251E-03    0.86       3.2  T
   7   -273.8397192 -0.782380E-06  0.128E-03    0.86       6.2  T
   8   -273.8397195 -0.336718E-06  0.475E-04    0.86      16.8  T
   9   -273.8397196 -0.398185E-07  0.254E-04    0.86      31.3  T
     SCC iter.                  ...        0 min,  0.453 sec
     gradient                   ...        0 min,  0.215 sec
 * total energy  :  -268.7930091 Eh     change       -0.2155839E-01 Eh
   gradient norm :     0.0304712 Eh/α   predicted    -0.2313342E-01 (   7.31%)
   displ. norm   :     0.9094380 α      lambda       -0.2118719E-01
   maximum displ.:     0.3695315 α      in ANC's #33, #79, #32, ...

........................................................................
.............................. CYCLE    9 ..............................
........................................................................
   1   -273.8648757 -0.273865E+03  0.195E-01    0.90       0.0  T
   2   -273.8649066 -0.309666E-04  0.114E-01    0.90       1.0  T
   3   -273.8646963  0.210274E-03  0.327E-02    0.90       1.0  T
   4   -273.8649031 -0.206731E-03  0.104E-02    0.90       1.0  T
   5   -273.8649271 -0.239811E-04  0.341E-03    0.90       2.3  T
   6   -273.8649272 -0.163637E-06  0.269E-03    0.90       3.0  T
   7   -273.8649287 -0.150940E-05  0.111E-03    0.90       7.2  T
   8   -273.8649290 -0.258922E-06  0.405E-04    0.90      19.6  T
   9   -273.8649290 -0.259190E-07  0.180E-04    0.90      44.1  T
     SCC iter.                  ...        0 min,  0.452 sec
     gradient                   ...        0 min,  0.215 sec
 * total energy  :  -268.8108671 Eh     change       -0.1785793E-01 Eh
   gradient norm :     0.0266938 Eh/α   predicted    -0.1935533E-01 (   8.39%)
   displ. norm   :     0.8716048 α      lambda       -0.1608059E-01
   maximum displ.:     0.3878767 α      in ANC's #33, #30, #79, ...

........................................................................
.............................. CYCLE   10 ..............................
........................................................................
   1   -273.8863794 -0.273886E+03  0.158E-01    0.93       0.0  T
   2   -273.8864015 -0.220999E-04  0.926E-02    0.92       1.0  T
   3   -273.8861340  0.267442E-03  0.315E-02    0.93       1.0  T
   4   -273.8863884 -0.254388E-03  0.105E-02    0.92       1.0  T
   5   -273.8864217 -0.332299E-04  0.279E-03    0.92       2.9  T
   6   -273.8864224 -0.705208E-06  0.191E-03    0.92       4.2  T
   7   -273.8864230 -0.601364E-06  0.954E-04    0.92       8.3  T
   8   -273.8864231 -0.148376E-06  0.408E-04    0.92      19.5  T
     SCC iter.                  ...        0 min,  0.403 sec
     gradient                   ...        0 min,  0.215 sec
 * total energy  :  -268.8251545 Eh     change       -0.1428747E-01 Eh
   gradient norm :     0.0244643 Eh/α   predicted    -0.1414849E-01 (  -0.97%)
   displ. norm   :     0.8800096 α      lambda       -0.1369648E-01
   maximum displ.:     0.4169109 α      in ANC's #33, #30, #32, ...

........................................................................
.............................. CYCLE   11 ..............................
........................................................................
   1   -273.9097672 -0.273910E+03  0.160E-01    0.94       0.0  T
   2   -273.9097855 -0.182836E-04  0.940E-02    0.94       1.0  T
   3   -273.9095484  0.237071E-03  0.310E-02    0.94       1.0  T
   4   -273.9097841 -0.235654E-03  0.860E-03    0.94       1.0  T
   5   -273.9098034 -0.193244E-04  0.263E-03    0.94       3.0  T
   6   -273.9098040 -0.578211E-06  0.175E-03    0.94       4.6  T
   7   -273.9098044 -0.408022E-06  0.932E-04    0.94       8.5  T
   8   -273.9098045 -0.154419E-06  0.333E-04    0.94      23.9  T
     SCC iter.                  ...        0 min,  0.404 sec
     gradient                   ...        0 min,  0.215 sec
 * total energy  :  -268.8369610 Eh     change       -0.1180647E-01 Eh
   gradient norm :     0.0214754 Eh/α   predicted    -0.1215163E-01 (   2.92%)
   displ. norm   :     0.8959281 α      lambda       -0.1275122E-01
   maximum displ.:     0.4233396 α      in ANC's #33, #30, #20, ...

........................................................................
.............................. CYCLE   12 ..............................
........................................................................
   1   -273.9323167 -0.273932E+03  0.175E-01    0.95       0.0  T
   2   -273.9323357 -0.190087E-04  0.103E-01    0.95       1.0  T
   3   -273.9320882  0.247559E-03  0.309E-02    0.95       1.0  T
   4   -273.9323292 -0.241037E-03  0.935E-03    0.95       1.0  T
   5   -273.9323530 -0.237747E-04  0.290E-03    0.95       2.7  T
   6   -273.9323537 -0.731446E-06  0.186E-03    0.95       4.3  T
   7   -273.9323541 -0.375117E-06  0.974E-04    0.95       8.2  T
   8   -273.9323542 -0.154187E-06  0.347E-04    0.95      22.9  T
     SCC iter.                  ...        0 min,  0.403 sec
     gradient                   ...        0 min,  0.215 sec
 * total energy  :  -268.8473003 Eh     change       -0.1033935E-01 Eh
   gradient norm :     0.0198209 Eh/α   predicted    -0.1149324E-01 (  11.16%)
   displ. norm   :     0.8498868 α      lambda       -0.1017202E-01
   maximum displ.:     0.4187138 α      in ANC's #33, #30, #20, ...

........................................................................
.............................. CYCLE   13 ..............................
........................................................................
   1   -273.9442390 -0.273944E+03  0.146E-01    0.96       0.0  T
   2   -273.9442519 -0.128331E-04  0.857E-02    0.96       1.0  T
   3   -273.9441354  0.116485E-03  0.224E-02    0.96       1.0  T
   4   -273.9442556 -0.120257E-03  0.563E-03    0.96       1.4  T
   5   -273.9442622 -0.659093E-05  0.209E-03    0.96       3.8  T
   6   -273.9442623 -0.429172E-07  0.160E-03    0.96       5.0  T
   7   -273.9442627 -0.433126E-06  0.618E-04    0.96      12.9  T
   8   -273.9442628 -0.620174E-07  0.238E-04    0.96      33.4  T
     SCC iter.                  ...        0 min,  0.403 sec
     gradient                   ...        0 min,  0.215 sec
 * total energy  :  -268.8563480 Eh     change       -0.9047633E-02 Eh
   gradient norm :     0.0193841 Eh/α   predicted    -0.8759669E-02 (  -3.18%)
   displ. norm   :     0.8737202 α      lambda       -0.9774903E-02
   maximum displ.:     0.4049240 α      in ANC's #33, #20, #30, ...

........................................................................
.............................. CYCLE   14 ..............................
........................................................................
   1   -273.9611181 -0.273961E+03  0.161E-01    0.97       0.0  T
   2   -273.9611271 -0.903706E-05  0.948E-02    0.97       1.0  T
   3   -273.9610362  0.909737E-04  0.191E-02    0.97       1.0  T
   4   -273.9611284 -0.922595E-04  0.538E-03    0.97       1.5  T
   5   -273.9611347 -0.628991E-05  0.236E-03    0.97       3.4  T
   6   -273.9611349 -0.162514E-06  0.165E-03    0.97       4.8  T
   7   -273.9611354 -0.517214E-06  0.478E-04    0.97      16.7  T
   8   -273.9611354 -0.386197E-07  0.222E-04    0.97      35.9  T
     SCC iter.                  ...        0 min,  0.404 sec
     gradient                   ...        0 min,  0.215 sec
 * total energy  :  -268.8645535 Eh     change       -0.8205574E-02 Eh
   gradient norm :     0.0194378 Eh/α   predicted    -0.8618463E-02 (   5.03%)
   displ. norm   :     0.8730419 α      lambda       -0.9324718E-02
   maximum displ.:     0.3765329 α      in ANC's #33, #30, #20, ...

........................................................................
.............................. CYCLE   15 ..............................
........................................................................
   1   -273.9769105 -0.273977E+03  0.169E-01    0.97       0.0  T
   2   -273.9769195 -0.896778E-05  0.992E-02    0.97       1.0  T
   3   -273.9767822  0.137216E-03  0.239E-02    0.97       1.0  T
   4   -273.9769211 -0.138852E-03  0.603E-03    0.97       1.3  T
   5   -273.9769291 -0.796927E-05  0.259E-03    0.97       3.1  T
   6   -273.9769294 -0.331145E-06  0.168E-03    0.97       4.7  T
   7   -273.9769299 -0.504279E-06  0.566E-04    0.97      14.0  T
   8   -273.9769300 -0.583645E-07  0.227E-04    0.97      35.1  T
     SCC iter.                  ...        0 min,  0.403 sec
     gradient                   ...        0 min,  0.216 sec
 * total energy  :  -268.8724408 Eh     change       -0.7887236E-02 Eh
   gradient norm :     0.0182094 Eh/α   predicted    -0.8216023E-02 (   4.17%)
   displ. norm   :     0.8852816 α      lambda       -0.8047498E-02
   maximum displ.:     0.3817365 α      in ANC's #33, #20, #30, ...

........................................................................
.............................. CYCLE   16 ..............................
........................................................................
   1   -273.9672922 -0.273967E+03  0.158E-01    0.99       0.0  T
   2   -273.9673072 -0.149713E-04  0.923E-02    0.99       1.0  T
   3   -273.9672060  0.101207E-03  0.228E-02    0.99       1.0  T
   4   -273.9673107 -0.104646E-03  0.637E-03    0.99       1.2  T
   5   -273.9673179 -0.725919E-05  0.226E-03    0.99       3.5  T
   6   -273.9673178  0.907407E-07  0.177E-03    0.99       4.5  T
   7   -273.9673185 -0.647198E-06  0.521E-04    0.99      15.3  T
   8   -273.9673185 -0.472603E-07  0.206E-04    0.99      38.6  T
     SCC iter.                  ...        0 min,  0.403 sec
     gradient                   ...        0 min,  0.215 sec
 * total energy  :  -268.8791370 Eh     change       -0.6696245E-02 Eh
   gradient norm :     0.0229399 Eh/α   predicted    -0.7177261E-02 (   7.18%)
   displ. norm   :     0.8382893 α      lambda       -0.7245362E-02
   maximum displ.:     0.3291440 α      in ANC's #20, #33, #19, ...

........................................................................
.............................. CYCLE   17 ..............................
........................................................................
   1   -273.9795022 -0.273980E+03  0.157E-01    1.00       0.0  T
   2   -273.9795163 -0.140920E-04  0.918E-02    1.00       1.0  T
   3   -273.9794575  0.587366E-04  0.172E-02    1.00       1.0  T
   4   -273.9795200 -0.624460E-04  0.504E-03    1.00       1.6  T
   5   -273.9795235 -0.346741E-05  0.240E-03    1.00       3.3  T
   6   -273.9795241 -0.681402E-06  0.113E-03    1.00       7.0  T
   7   -273.9795241  0.101457E-07  0.809E-04    1.00       9.8  T
   8   -273.9795243 -0.179702E-06  0.178E-04    1.00      44.6  T
     SCC iter.                  ...        0 min,  0.403 sec
     gradient                   ...        0 min,  0.215 sec
 * total energy  :  -268.8851582 Eh     change       -0.6021141E-02 Eh
   gradient norm :     0.0178835 Eh/α   predicted    -0.6168441E-02 (   2.45%)
   displ. norm   :     0.8368171 α      lambda       -0.5919719E-02
   maximum displ.:     0.3616634 α      in ANC's #20, #19, #33, ...

........................................................................
.............................. CYCLE   18 ..............................
........................................................................
   1   -273.9895112 -0.273990E+03  0.145E-01    1.00       0.0  T
   2   -273.9895224 -0.112057E-04  0.849E-02    1.00       1.0  T
   3   -273.9894381  0.842842E-04  0.186E-02    1.00       1.0  T
   4   -273.9895232 -0.850513E-04  0.562E-03    1.00       1.4  T
   5   -273.9895305 -0.733177E-05  0.228E-03    1.00       3.5  T
   6   -273.9895311 -0.611939E-06  0.127E-03    1.00       6.2  T
   7   -273.9895313 -0.220361E-06  0.643E-04    1.00      12.4  T
   8   -273.9895314 -0.877593E-07  0.194E-04    1.00      41.0  T
     SCC iter.                  ...        0 min,  0.404 sec
     gradient                   ...        0 min,  0.215 sec
 * total energy  :  -268.8900521 Eh     change       -0.4893966E-02 Eh
   gradient norm :     0.0160014 Eh/α   predicted    -0.5032541E-02 (   2.83%)
   displ. norm   :     0.8563228 α      lambda       -0.5145482E-02
   maximum displ.:     0.3779927 α      in ANC's #20, #19, #33, ...

........................................................................
.............................. CYCLE   19 ..............................
........................................................................
   1   -273.9788817 -0.273979E+03  0.146E-01    1.01       0.0  T
   2   -273.9788951 -0.133886E-04  0.853E-02    1.01       1.0  T
   3   -273.9788291  0.660228E-04  0.175E-02    1.01       1.0  T
   4   -273.9788965 -0.674338E-04  0.550E-03    1.01       1.4  T
   5   -273.9789030 -0.645226E-05  0.211E-03    1.01       3.8  T
   6   -273.9789033 -0.285038E-06  0.143E-03    1.01       5.6  T
   7   -273.9789036 -0.309675E-06  0.549E-04    1.01      14.5  T
   8   -273.9789036 -0.498410E-07  0.188E-04    1.01      42.3  T
     SCC iter.                  ...        0 min,  0.403 sec
     gradient                   ...        0 min,  0.215 sec
 * total energy  :  -268.8940439 Eh     change       -0.3991796E-02 Eh
   gradient norm :     0.0222515 Eh/α   predicted    -0.4459308E-02 (  11.71%)
   displ. norm   :     0.7734657 α      lambda       -0.4354653E-02
   maximum displ.:     0.3910466 α      in ANC's #20, #19, #30, ...

........................................................................
.............................. CYCLE   20 ..............................
........................................................................
   1   -273.9870666 -0.273987E+03  0.131E-01    1.01       0.0  T
   2   -273.9870724 -0.579851E-05  0.767E-02    1.01       1.0  T
   3   -273.9869009  0.171591E-03  0.246E-02    1.01       1.0  T
   4   -273.9870775 -0.176676E-03  0.545E-03    1.01       1.5  T
   5   -273.9870831 -0.555101E-05  0.188E-03    1.01       4.2  T
   6   -273.9870834 -0.273203E-06  0.110E-03    1.01       7.2  T
   7   -273.9870834 -0.849736E-07  0.538E-04    1.01      14.8  T
   8   -273.9870835 -0.565398E-07  0.189E-04    1.01      42.2  T
     SCC iter.                  ...        0 min,  0.403 sec
     gradient                   ...        0 min,  0.215 sec
 * total energy  :  -268.8974023 Eh     change       -0.3358363E-02 Eh
   gradient norm :     0.0201611 Eh/α   predicted    -0.3479903E-02 (   3.62%)
   displ. norm   :     0.7380297 α      lambda       -0.4145873E-02
   maximum displ.:     0.3708884 α      in ANC's #20, #19, #17, ...
 * RMSD in coord.:     1.0835352 α      energy gain  -0.5054771E+00 Eh

generating ANC from model Hessian ...
Using Lindh-Hessian (1995)
 Shifting diagonal of input Hessian by    9.9981223926246341E-003
 Lowest  eigenvalues of input Hessian
    0.000000    0.000000    0.000000    0.000000    0.000000    0.000000
    0.010000    0.010002    0.010005    0.010006    0.010009    0.010011
    0.010014    0.010014    0.010019    0.010083    0.010118    0.010137
 Highest eigenvalues
    2.397463    2.400213    2.402750    2.919334    2.921805    2.926355


........................................................................
.............................. CYCLE   21 ..............................
........................................................................
   1   -274.0232015 -0.274023E+03  0.120E-01    1.00       0.0  T
   2   -274.0232127 -0.111890E-04  0.703E-02    1.00       1.0  T
   3   -274.0231276  0.850147E-04  0.180E-02    1.00       1.0  T
   4   -274.0232113 -0.836766E-04  0.618E-03    1.00       1.3  T
   5   -274.0232204 -0.904543E-05  0.207E-03    1.00       3.8  T
   6   -274.0232207 -0.349072E-06  0.133E-03    1.00       6.0  T
   7   -274.0232209 -0.220686E-06  0.545E-04    1.00      14.6  T
   8   -274.0232210 -0.633899E-07  0.175E-04    1.00      45.4  T
     SCC iter.                  ...        0 min,  0.404 sec
     gradient                   ...        0 min,  0.215 sec
 * total energy  :  -268.9001036 Eh     change       -0.2701321E-02 Eh
   gradient norm :     0.0198459 Eh/α   predicted     0.0000000E+00 (-100.00%)
   displ. norm   :     0.3053346 α      lambda       -0.1960995E-02
   maximum displ.:     0.2385882 α      in ANC's #20, #18, #26, ...

........................................................................
.............................. CYCLE   22 ..............................
........................................................................
   1   -274.0124229 -0.274012E+03  0.550E-02    1.00       0.0  T
   2   -274.0124258 -0.293344E-05  0.324E-02    1.00       1.0  T
   3   -274.0124043  0.214697E-04  0.105E-02    1.00       1.0  T
   4   -274.0124254 -0.210995E-04  0.308E-03    1.00       2.6  T
   5   -274.0124274 -0.200461E-05  0.117E-03    1.00       6.8  T
   6   -274.0124277 -0.268497E-06  0.584E-04    1.00      13.6  T
   7   -274.0124277 -0.377580E-07  0.318E-04    1.00      25.0  T
     SCC iter.                  ...        0 min,  0.353 sec
     gradient                   ...        0 min,  0.215 sec
 * total energy  :  -268.9017301 Eh     change       -0.1626497E-02 Eh
   gradient norm :     0.0079482 Eh/α   predicted    -0.1071936E-02 ( -34.10%)
   displ. norm   :     0.5636290 α      lambda       -0.2404507E-02
   maximum displ.:     0.4177616 α      in ANC's #20, #18, #26, ...

........................................................................
.............................. CYCLE   23 ..............................
........................................................................
   1   -274.0003208 -0.274000E+03  0.930E-02    1.01       0.0  T
   2   -274.0003271 -0.623158E-05  0.547E-02    1.01       1.0  T
   3   -274.0002932  0.338331E-04  0.134E-02    1.01       1.0  T
   4   -274.0003263 -0.330568E-04  0.421E-03    1.01       1.9  T
   5   -274.0003301 -0.377795E-05  0.163E-03    1.01       4.9  T
   6   -274.0003305 -0.469595E-06  0.848E-04    1.01       9.4  T
   7   -274.0003306 -0.700988E-07  0.467E-04    1.01      17.0  T
     SCC iter.                  ...        0 min,  0.353 sec
     gradient                   ...        0 min,  0.215 sec
 * total energy  :  -268.9035129 Eh     change       -0.1782801E-02 Eh
   gradient norm :     0.0115313 Eh/α   predicted    -0.1584186E-02 ( -11.14%)
   displ. norm   :     0.5983079 α      lambda       -0.2179543E-02
   maximum displ.:     0.4265302 α      in ANC's #20, #18, #26, ...

........................................................................
.............................. CYCLE   24 ..............................
........................................................................
   1   -273.9956380 -0.273996E+03  0.101E-01    1.01       0.0  T
   2   -273.9956415 -0.345401E-05  0.595E-02    1.01       1.0  T
   3   -273.9956147  0.268078E-04  0.122E-02    1.01       1.0  T
   4   -273.9956422 -0.274912E-04  0.321E-03    1.01       2.5  T
   5   -273.9956439 -0.172817E-05  0.139E-03    1.01       5.7  T
   6   -273.9956440 -0.124773E-06  0.876E-04    1.01       9.1  T
   7   -273.9956441 -0.944365E-07  0.372E-04    1.01      21.4  T
     SCC iter.                  ...        0 min,  0.354 sec
     gradient                   ...        0 min,  0.215 sec
 * total energy  :  -268.9049811 Eh     change       -0.1468174E-02 Eh
   gradient norm :     0.0173832 Eh/α   predicted    -0.1479883E-02 (   0.80%)
   displ. norm   :     0.4999137 α      lambda       -0.1724149E-02
   maximum displ.:     0.3639763 α      in ANC's #20, #18, #19, ...

........................................................................
.............................. CYCLE   25 ..............................
........................................................................
   1   -274.0017446 -0.274002E+03  0.732E-02    1.01       0.0  T
   2   -274.0017459 -0.129391E-05  0.430E-02    1.01       1.0  T
   3   -274.0017348  0.111622E-04  0.767E-03    1.01       1.0  T
   4   -274.0017467 -0.119427E-04  0.159E-03    1.01       5.0  T
   5   -274.0017471 -0.371608E-06  0.804E-04    1.01       9.9  T
   6   -274.0017471 -0.338177E-07  0.493E-04    1.01      16.2  T
     SCC iter.                  ...        0 min,  0.303 sec
     gradient                   ...        0 min,  0.215 sec
 * total energy  :  -268.9065425 Eh     change       -0.1561403E-02 Eh
   gradient norm :     0.0149454 Eh/α   predicted    -0.1077519E-02 ( -30.99%)
   displ. norm   :     0.6113115 α      lambda       -0.2260165E-02
   maximum displ.:     0.4520888 α      in ANC's #20, #18, #19, ...

........................................................................
.............................. CYCLE   26 ..............................
........................................................................
   1   -274.0193524 -0.274019E+03  0.887E-02    1.00       0.0  T
   2   -274.0193560 -0.367510E-05  0.521E-02    1.00       1.0  T
   3   -274.0193429  0.131442E-04  0.781E-03    1.00       1.0  T
   4   -274.0193557 -0.128363E-04  0.284E-03    1.00       2.8  T
   5   -274.0193577 -0.200800E-05  0.116E-03    1.00       6.9  T
   6   -274.0193579 -0.174312E-06  0.634E-04    1.00      12.6  T
   7   -274.0193579 -0.287952E-07  0.322E-04    1.00      24.7  T
     SCC iter.                  ...        0 min,  0.353 sec
     gradient                   ...        0 min,  0.215 sec
 * total energy  :  -268.9084205 Eh     change       -0.1877993E-02 Eh
   gradient norm :     0.0057138 Eh/α   predicted    -0.1552408E-02 ( -17.34%)
   displ. norm   :     0.7185110 α      lambda       -0.1786613E-02
   maximum displ.:     0.5377445 α      in ANC's #20, #18, #19, ...

........................................................................
.............................. CYCLE   27 ..............................
........................................................................
   1   -274.0248802 -0.274025E+03  0.979E-02    1.00       0.0  T
   2   -274.0248833 -0.309777E-05  0.574E-02    1.00       1.0  T
   3   -274.0248712  0.121156E-04  0.800E-03    1.00       1.0  T
   4   -274.0248836 -0.124414E-04  0.258E-03    1.00       3.1  T
   5   -274.0248850 -0.135646E-05  0.103E-03    1.00       7.7  T
   6   -274.0248851 -0.102508E-06  0.580E-04    1.00      13.7  T
   7   -274.0248851 -0.280726E-07  0.265E-04    1.00      30.0  T
     SCC iter.                  ...        0 min,  0.354 sec
     gradient                   ...        0 min,  0.215 sec
 * total energy  :  -268.9099907 Eh     change       -0.1570218E-02 Eh
   gradient norm :     0.0060194 Eh/α   predicted    -0.1354487E-02 ( -13.74%)
   displ. norm   :     0.6764942 α      lambda       -0.1407933E-02
   maximum displ.:     0.5083706 α      in ANC's #20, #18, #19, ...

........................................................................
.............................. CYCLE   28 ..............................
........................................................................
   1   -274.0253659 -0.274025E+03  0.896E-02    1.00       0.0  T
   2   -274.0253682 -0.223689E-05  0.525E-02    1.00       1.0  T
   3   -274.0253647  0.346852E-05  0.479E-03    1.00       1.7  T
   4   -274.0253690 -0.424848E-05  0.157E-03    1.00       5.1  T
   5   -274.0253692 -0.290228E-06  0.892E-04    1.00       8.9  T
   6   -274.0253693 -0.713651E-07  0.491E-04    1.00      16.2  T
     SCC iter.                  ...        0 min,  0.303 sec
     gradient                   ...        0 min,  0.215 sec
 * total energy  :  -268.9112603 Eh     change       -0.1269580E-02 Eh
   gradient norm :     0.0064245 Eh/α   predicted    -0.1026134E-02 ( -19.18%)
   displ. norm   :     0.6436098 α      lambda       -0.1237735E-02
   maximum displ.:     0.4889358 α      in ANC's #20, #18, #19, ...

........................................................................
.............................. CYCLE   29 ..............................
........................................................................
   1   -274.0262383 -0.274026E+03  0.824E-02    1.00       0.0  T
   2   -274.0262404 -0.207648E-05  0.482E-02    1.00       1.0  T
   3   -274.0262336  0.675822E-05  0.600E-03    1.00       1.3  T
   4   -274.0262411 -0.748287E-05  0.173E-03    1.00       4.6  T
   5   -274.0262415 -0.380369E-06  0.999E-04    1.00       8.0  T
   6   -274.0262416 -0.119084E-06  0.510E-04    1.00      15.6  T
     SCC iter.                  ...        0 min,  0.304 sec
     gradient                   ...        0 min,  0.215 sec
 * total energy  :  -268.9123735 Eh     change       -0.1113252E-02 Eh
   gradient norm :     0.0052560 Eh/α   predicted    -0.8752265E-03 ( -21.38%)
   displ. norm   :     0.6540802 α      lambda       -0.1128900E-02
   maximum displ.:     0.4949602 α      in ANC's #20, #18, #19, ...

........................................................................
.............................. CYCLE   30 ..............................
........................................................................
   1   -274.0260444 -0.274026E+03  0.822E-02    0.99       0.0  T
   2   -274.0260470 -0.256837E-05  0.480E-02    0.99       1.0  T
   3   -274.0260412  0.572894E-05  0.536E-03    0.99       1.5  T
   4   -274.0260479 -0.670135E-05  0.169E-03    0.99       4.7  T
   5   -274.0260482 -0.218250E-06  0.112E-03    0.99       7.1  T
   6   -274.0260483 -0.183067E-06  0.518E-04    0.99      15.3  T
   7   -274.0260484 -0.605323E-07  0.154E-04    0.99      51.5  T
     SCC iter.                  ...        0 min,  0.353 sec
     gradient                   ...        0 min,  0.215 sec
 * total energy  :  -268.9133923 Eh     change       -0.1018723E-02 Eh
   gradient norm :     0.0040521 Eh/α   predicted    -0.8059362E-03 ( -20.89%)
   displ. norm   :     0.6567523 α      lambda       -0.1001631E-02
   maximum displ.:     0.4978680 α      in ANC's #20, #18, #19, ...

........................................................................
.............................. CYCLE   31 ..............................
........................................................................
   1   -274.0261085 -0.274026E+03  0.814E-02    0.99       0.0  T
   2   -274.0261116 -0.307715E-05  0.476E-02    0.99       1.0  T
   3   -274.0261059  0.564096E-05  0.527E-03    0.99       1.5  T
   4   -274.0261127 -0.678617E-05  0.175E-03    0.99       4.6  T
   5   -274.0261129 -0.161129E-06  0.116E-03    0.99       6.9  T
   6   -274.0261131 -0.204471E-06  0.556E-04    0.99      14.3  T
   7   -274.0261132 -0.824441E-07  0.183E-04    0.99      43.5  T
     SCC iter.                  ...        0 min,  0.353 sec
     gradient                   ...        0 min,  0.215 sec
 * total energy  :  -268.9143035 Eh     change       -0.9111991E-03 Eh
   gradient norm :     0.0038924 Eh/α   predicted    -0.7168335E-03 ( -21.33%)
   displ. norm   :     0.6582128 α      lambda       -0.8818186E-03
   maximum displ.:     0.4973005 α      in ANC's #20, #18, #15, ...

........................................................................
.............................. CYCLE   32 ..............................
........................................................................
   1   -274.0265143 -0.274027E+03  0.813E-02    0.99       0.0  T
   2   -274.0265177 -0.332930E-05  0.475E-02    0.99       1.0  T
   3   -274.0265135  0.413923E-05  0.483E-03    0.99       1.6  T
   4   -274.0265188 -0.530645E-05  0.181E-03    0.99       4.4  T
   5   -274.0265190 -0.162795E-06  0.117E-03    0.99       6.8  T
   6   -274.0265192 -0.213829E-06  0.499E-04    0.99      15.9  T
   7   -274.0265193 -0.621309E-07  0.169E-04    0.99      47.1  T
     SCC iter.                  ...        0 min,  0.354 sec
     gradient                   ...        0 min,  0.215 sec
 * total energy  :  -268.9151016 Eh     change       -0.7981765E-03 Eh
   gradient norm :     0.0037975 Eh/α   predicted    -0.6319374E-03 ( -20.83%)
   displ. norm   :     0.6533233 α      lambda       -0.7553007E-03
   maximum displ.:     0.4935005 α      in ANC's #20, #18, #15, ...

........................................................................
.............................. CYCLE   33 ..............................
........................................................................
   1   -274.0263481 -0.274026E+03  0.806E-02    0.98       0.0  T
   2   -274.0263516 -0.340748E-05  0.471E-02    0.98       1.0  T
   3   -274.0263485  0.308247E-05  0.470E-03    0.98       1.7  T
   4   -274.0263527 -0.420265E-05  0.194E-03    0.98       4.1  T
   5   -274.0263529 -0.189286E-06  0.123E-03    0.98       6.5  T
   6   -274.0263531 -0.221841E-06  0.432E-04    0.98      18.4  T
   7   -274.0263531 -0.401058E-07  0.138E-04    0.98      57.8  T
     SCC iter.                  ...        0 min,  0.353 sec
     gradient                   ...        0 min,  0.215 sec
 * total energy  :  -268.9157762 Eh     change       -0.6746205E-03 Eh
   gradient norm :     0.0036083 Eh/α   predicted    -0.5388467E-03 ( -20.13%)
   displ. norm   :     0.6540774 α      lambda       -0.6367590E-03
   maximum displ.:     0.4943324 α      in ANC's #20, #18, #15, ...

........................................................................
.............................. CYCLE   34 ..............................
........................................................................
   1   -274.0267955 -0.274027E+03  0.808E-02    0.98       0.0  T
   2   -274.0267989 -0.346555E-05  0.472E-02    0.98       1.0  T
   3   -274.0267970  0.198164E-05  0.426E-03    0.98       1.9  T
   4   -274.0268000 -0.301614E-05  0.198E-03    0.98       4.0  T
   5   -274.0268002 -0.244600E-06  0.118E-03    0.98       6.7  T
   6   -274.0268004 -0.222566E-06  0.369E-04    0.98      21.5  T
   7   -274.0268005 -0.289993E-07  0.116E-04    0.98      68.9  T
     SCC iter.                  ...        0 min,  0.354 sec
     gradient                   ...        0 min,  0.214 sec
 * total energy  :  -268.9163321 Eh     change       -0.5558379E-03 Eh
   gradient norm :     0.0033888 Eh/α   predicted    -0.4545896E-03 ( -18.22%)
   displ. norm   :     0.6400360 α      lambda       -0.5014908E-03
   maximum displ.:     0.4848209 α      in ANC's #20, #18, #15, ...

........................................................................
.............................. CYCLE   35 ..............................
........................................................................
   1   -274.0258011 -0.274026E+03  0.786E-02    0.97       0.0  T
   2   -274.0258044 -0.327464E-05  0.459E-02    0.97       1.0  T
   3   -274.0258003  0.416494E-05  0.511E-03    0.97       1.6  T
   4   -274.0258054 -0.514870E-05  0.201E-03    0.97       4.0  T
   5   -274.0258057 -0.293366E-06  0.121E-03    0.97       6.6  T
   6   -274.0258059 -0.237261E-06  0.427E-04    0.97      18.6  T
   7   -274.0258060 -0.409995E-07  0.113E-04    0.97      70.2  T
     SCC iter.                  ...        0 min,  0.354 sec
     gradient                   ...        0 min,  0.214 sec
 * total energy  :  -268.9167559 Eh     change       -0.4237708E-03 Eh
   gradient norm :     0.0028756 Eh/α   predicted    -0.3534640E-03 ( -16.59%)
   displ. norm   :     0.6715277 α      lambda       -0.4066864E-03
   maximum displ.:     0.5095115 α      in ANC's #20, #18, #11, ...

........................................................................
.............................. CYCLE   36 ..............................
........................................................................
   1   -274.0270918 -0.274027E+03  0.823E-02    0.97       0.0  T
   2   -274.0270955 -0.362546E-05  0.480E-02    0.97       1.0  T
   3   -274.0270900  0.542033E-05  0.553E-03    0.97       1.4  T
   4   -274.0270967 -0.662132E-05  0.206E-03    0.97       3.9  T
   5   -274.0270969 -0.222023E-06  0.133E-03    0.97       6.0  T
   6   -274.0270972 -0.312559E-06  0.442E-04    0.97      18.0  T
   7   -274.0270972 -0.386917E-07  0.119E-04    0.97      66.6  T
     SCC iter.                  ...        0 min,  0.353 sec
     gradient                   ...        0 min,  0.214 sec
 * total energy  :  -268.9170720 Eh     change       -0.3161278E-03 Eh
   gradient norm :     0.0029955 Eh/α   predicted    -0.2950465E-03 (  -6.67%)
   displ. norm   :     0.5875183 α      lambda       -0.2496578E-03
   maximum displ.:     0.4455148 α      in ANC's #20, #18, #11, ...

........................................................................
.............................. CYCLE   37 ..............................
........................................................................
   1   -274.0247713 -0.274025E+03  0.710E-02    0.97       0.0  T
   2   -274.0247740 -0.268147E-05  0.414E-02    0.97       1.0  T
   3   -274.0247686  0.533155E-05  0.522E-03    0.97       1.5  T
   4   -274.0247748 -0.619805E-05  0.181E-03    0.97       4.4  T
   5   -274.0247751 -0.268397E-06  0.114E-03    0.97       7.0  T
   6   -274.0247753 -0.186543E-06  0.546E-04    0.97      14.6  T
   7   -274.0247754 -0.678016E-07  0.112E-04    0.97      71.0  T
     SCC iter.                  ...        0 min,  0.353 sec
     gradient                   ...        0 min,  0.214 sec
 * total energy  :  -268.9172433 Eh     change       -0.1713174E-03 Eh
   gradient norm :     0.0030379 Eh/α   predicted    -0.1679174E-03 (  -1.98%)
   displ. norm   :     0.4389576 α      lambda       -0.1374007E-03
   maximum displ.:     0.3255683 α      in ANC's #20, #12, #11, ...

........................................................................
.............................. CYCLE   38 ..............................
........................................................................
   1   -274.0289904 -0.274029E+03  0.529E-02    0.96       0.0  T
   2   -274.0289920 -0.159977E-05  0.309E-02    0.96       1.0  T
   3   -274.0289874  0.460383E-05  0.461E-03    0.96       1.7  T
   4   -274.0289926 -0.514393E-05  0.149E-03    0.96       5.4  T
   5   -274.0289928 -0.202079E-06  0.922E-04    0.96       8.6  T
   6   -274.0289929 -0.111068E-06  0.439E-04    0.96      18.1  T
     SCC iter.                  ...        0 min,  0.304 sec
     gradient                   ...        0 min,  0.214 sec
 * total energy  :  -268.9173304 Eh     change       -0.8711031E-04 Eh
   gradient norm :     0.0022832 Eh/α   predicted    -0.8194492E-04 (  -5.93%)
   displ. norm   :     0.2622034 α      lambda       -0.6255308E-04
   maximum displ.:     0.1858285 α      in ANC's #20, #12, #11, ...

........................................................................
.............................. CYCLE   39 ..............................
........................................................................
   1   -274.0299916 -0.274030E+03  0.306E-02    0.96       0.0  T
   2   -274.0299921 -0.516313E-06  0.179E-02    0.96       1.0  T
   3   -274.0299899  0.225670E-05  0.312E-03    0.96       2.6  T
   4   -274.0299923 -0.246178E-05  0.876E-04    0.96       9.1  T
   5   -274.0299924 -0.904582E-07  0.520E-04    0.96      15.3  T
   6   -274.0299925 -0.271882E-07  0.283E-04    0.96      28.1  T
     SCC iter.                  ...        0 min,  0.305 sec
     gradient                   ...        0 min,  0.220 sec
 * total energy  :  -268.9173760 Eh     change       -0.4555321E-04 Eh
   gradient norm :     0.0021543 Eh/α   predicted    -0.3343014E-04 ( -26.61%)
   displ. norm   :     0.2636362 α      lambda       -0.7199445E-04
   maximum displ.:     0.1603114 α      in ANC's #20, #12, #11, ...

........................................................................
.............................. CYCLE   40 ..............................
........................................................................
   1   -274.0327958 -0.274033E+03  0.308E-02    0.96       0.0  T
   2   -274.0327963 -0.498087E-06  0.180E-02    0.96       1.0  T
   3   -274.0327940  0.234599E-05  0.325E-03    0.96       2.5  T
   4   -274.0327965 -0.256730E-05  0.880E-04    0.96       9.0  T
   5   -274.0327966 -0.842778E-07  0.503E-04    0.96      15.8  T
   6   -274.0327967 -0.193900E-07  0.276E-04    0.96      28.8  T
     SCC iter.                  ...        0 min,  0.304 sec
     gradient                   ...        0 min,  0.214 sec
 * total energy  :  -268.9174294 Eh     change       -0.5342364E-04 Eh
   gradient norm :     0.0023548 Eh/α   predicted    -0.3850188E-04 ( -27.93%)
   displ. norm   :     0.2974253 α      lambda       -0.9430870E-04
   maximum displ.:     0.1276599 α      in ANC's #20, #12, #3, ...

........................................................................
.............................. CYCLE   41 ..............................
........................................................................
   1   -274.0335947 -0.274034E+03  0.360E-02    0.96       0.0  T
   2   -274.0335952 -0.466243E-06  0.211E-02    0.96       1.0  T
   3   -274.0335884  0.681268E-05  0.551E-03    0.96       1.4  T
   4   -274.0335956 -0.717921E-05  0.109E-03    0.96       7.3  T
   5   -274.0335957 -0.158994E-06  0.540E-04    0.96      14.7  T
   6   -274.0335958 -0.199471E-07  0.291E-04    0.96      27.4  T
     SCC iter.                  ...        0 min,  0.304 sec
     gradient                   ...        0 min,  0.214 sec
 * total energy  :  -268.9175010 Eh     change       -0.7163018E-04 Eh
   gradient norm :     0.0025656 Eh/α   predicted    -0.5132985E-04 ( -28.34%)
   displ. norm   :     0.3290589 α      lambda       -0.1085724E-03
   maximum displ.:     0.1336171 α      in ANC's #18, #3, #12, ...

........................................................................
.............................. CYCLE   42 ..............................
........................................................................
   1   -274.0329584 -0.274033E+03  0.408E-02    0.96       0.0  T
   2   -274.0329589 -0.522043E-06  0.239E-02    0.96       1.0  T
   3   -274.0329497  0.923915E-05  0.653E-03    0.96       1.2  T
   4   -274.0329594 -0.968702E-05  0.121E-03    0.96       6.6  T
   5   -274.0329596 -0.197732E-06  0.562E-04    0.96      14.1  T
   6   -274.0329596 -0.123422E-07  0.314E-04    0.96      25.4  T
     SCC iter.                  ...        0 min,  0.304 sec
     gradient                   ...        0 min,  0.214 sec
 * total energy  :  -268.9175832 Eh     change       -0.8220485E-04 Eh
   gradient norm :     0.0030121 Eh/α   predicted    -0.6016962E-04 ( -26.81%)
   displ. norm   :     0.3227369 α      lambda       -0.1006581E-03
   maximum displ.:     0.1580326 α      in ANC's #18, #3, #12, ...
 * RMSD in coord.:     0.8200162 α      energy gain  -0.2018093E-01 Eh

generating ANC from model Hessian ...
Using Lindh-Hessian (1995)
 Shifting diagonal of input Hessian by    9.9977646886273402E-003
 Lowest  eigenvalues of input Hessian
    0.000000    0.000000    0.000000    0.000000    0.000000    0.000000
    0.010000    0.010001    0.010006    0.010007    0.010010    0.010011
    0.010014    0.010015    0.010028    0.010076    0.010083    0.010108
 Highest eigenvalues
    2.400621    2.405368    2.405599    2.922892    2.928872    2.929211


........................................................................
.............................. CYCLE   43 ..............................
........................................................................
   1   -274.0305197 -0.274031E+03  0.402E-02    0.96       0.0  T
   2   -274.0305203 -0.651900E-06  0.236E-02    0.96       1.0  T
   3   -274.0305142  0.611521E-05  0.537E-03    0.96       1.5  T
   4   -274.0305207 -0.646361E-05  0.119E-03    0.96       6.7  T
   5   -274.0305209 -0.176224E-06  0.586E-04    0.96      13.6  T
   6   -274.0305209 -0.205305E-07  0.316E-04    0.96      25.2  T
     SCC iter.                  ...        0 min,  0.305 sec
     gradient                   ...        0 min,  0.214 sec
 * total energy  :  -268.9176569 Eh     change       -0.7372022E-04 Eh
   gradient norm :     0.0033378 Eh/α   predicted     0.0000000E+00 (-100.00%)
   displ. norm   :     0.0545714 α      lambda       -0.7294716E-04
   maximum displ.:     0.0231987 α      in ANC's #45, #5, #59, ...

........................................................................
.............................. CYCLE   44 ..............................
........................................................................
   1   -274.0301112 -0.274030E+03  0.261E-02    0.96       0.0  T
   2   -274.0301113 -0.105992E-06  0.155E-02    0.96       1.0  T
   3   -274.0301099  0.137104E-05  0.257E-03    0.96       3.1  T
   4   -274.0301113 -0.142652E-05  0.560E-04    0.96      14.2  T
   5   -274.0301114 -0.492504E-07  0.292E-04    0.96      27.2  T
   6   -274.0301114 -0.888514E-08  0.176E-04    0.96      45.1  T
     SCC iter.                  ...        0 min,  0.304 sec
     gradient                   ...        0 min,  0.214 sec
 * total energy  :  -268.9176997 Eh     change       -0.4277876E-04 Eh
   gradient norm :     0.0019754 Eh/α   predicted    -0.3698633E-04 ( -13.54%)
   displ. norm   :     0.0966144 α      lambda       -0.4066181E-04
   maximum displ.:     0.0434279 α      in ANC's #5, #27, #11, ...

........................................................................
.............................. CYCLE   45 ..............................
........................................................................
   1   -274.0296476 -0.274030E+03  0.292E-02    0.96       0.0  T
   2   -274.0296478 -0.213210E-06  0.173E-02    0.96       1.0  T
   3   -274.0296444  0.335836E-05  0.390E-03    0.96       2.0  T
   4   -274.0296479 -0.345613E-05  0.867E-04    0.96       9.2  T
   5   -274.0296480 -0.141970E-06  0.421E-04    0.96      18.9  T
   6   -274.0296480 -0.202786E-07  0.252E-04    0.96      31.6  T
     SCC iter.                  ...        0 min,  0.304 sec
     gradient                   ...        0 min,  0.214 sec
 * total energy  :  -268.9177086 Eh     change       -0.8898073E-05 Eh
   gradient norm :     0.0025812 Eh/α   predicted    -0.2044247E-04 ( 129.74%)
   displ. norm   :     0.0938734 α      lambda       -0.7406876E-04
   maximum displ.:     0.0439072 α      in ANC's #5, #20, #12, ...

........................................................................
.............................. CYCLE   46 ..............................
........................................................................
   1   -274.0296422 -0.274030E+03  0.193E-02    0.96       0.0  T
   2   -274.0296423 -0.106383E-06  0.115E-02    0.96       1.0  T
   3   -274.0296394  0.288448E-05  0.332E-03    0.96       2.4  T
   4   -274.0296423 -0.294023E-05  0.791E-04    0.96      10.1  T
   5   -274.0296424 -0.125409E-06  0.336E-04    0.96      23.7  T
   6   -274.0296425 -0.844960E-08  0.200E-04    0.96      39.7  T
     SCC iter.                  ...        0 min,  0.304 sec
     gradient                   ...        0 min,  0.214 sec
 * total energy  :  -268.9177402 Eh     change       -0.3154202E-04 Eh
   gradient norm :     0.0032669 Eh/α   predicted    -0.3736095E-04 (  18.45%)
   displ. norm   :     0.0748831 α      lambda       -0.6199722E-04
   maximum displ.:     0.0328400 α      in ANC's #5, #11, #20, ...

........................................................................
.............................. CYCLE   47 ..............................
........................................................................
   1   -274.0296768 -0.274030E+03  0.280E-02    0.96       0.0  T
   2   -274.0296768 -0.445490E-07  0.167E-02    0.96       1.0  T
   3   -274.0296729  0.391766E-05  0.450E-03    0.96       1.8  T
   4   -274.0296770 -0.408694E-05  0.594E-04    0.96      13.4  T
   5   -274.0296770 -0.492391E-07  0.329E-04    0.96      24.2  T
   6   -274.0296770 -0.856005E-08  0.187E-04    0.96      42.6  T
     SCC iter.                  ...        0 min,  0.304 sec
     gradient                   ...        0 min,  0.215 sec
 * total energy  :  -268.9177591 Eh     change       -0.1896164E-04 Eh
   gradient norm :     0.0028465 Eh/α   predicted    -0.3117596E-04 (  64.42%)
   displ. norm   :     0.0469709 α      lambda       -0.4483597E-04
   maximum displ.:     0.0250361 α      in ANC's #5, #11, #20, ...

........................................................................
.............................. CYCLE   48 ..............................
........................................................................
   1   -274.0295059 -0.274030E+03  0.103E-02    0.96       0.0  T
   2   -274.0295059 -0.501679E-07  0.610E-03    0.96       1.3  T
   3   -274.0295055  0.482332E-06  0.161E-03    0.96       4.9  T
   4   -274.0295059 -0.490931E-06  0.380E-04    0.96      20.9  T
   5   -274.0295060 -0.282974E-07  0.153E-04    0.96      51.9  T
     SCC iter.                  ...        0 min,  0.254 sec
     gradient                   ...        0 min,  0.214 sec
 * total energy  :  -268.9177887 Eh     change       -0.2958188E-04 Eh
   gradient norm :     0.0012022 Eh/α   predicted    -0.2247046E-04 ( -24.04%)
   displ. norm   :     0.1495972 α      lambda       -0.3030772E-04
   maximum displ.:     0.0821073 α      in ANC's #5, #11, #20, ...

........................................................................
.............................. CYCLE   49 ..............................
........................................................................
   1   -274.0288803 -0.274029E+03  0.192E-02    0.96       0.0  T
   2   -274.0288804 -0.912162E-07  0.113E-02    0.96       1.0  T
   3   -274.0288784  0.200693E-05  0.251E-03    0.96       3.2  T
   4   -274.0288804 -0.203494E-05  0.664E-04    0.96      12.0  T
   5   -274.0288805 -0.967312E-07  0.272E-04    0.96      29.2  T
   6   -274.0288805 -0.548897E-08  0.148E-04    0.96      53.6  T
     SCC iter.                  ...        0 min,  0.304 sec
     gradient                   ...        0 min,  0.214 sec
 * total energy  :  -268.9178217 Eh     change       -0.3300869E-04 Eh
   gradient norm :     0.0017078 Eh/α   predicted    -0.1530567E-04 ( -53.63%)
   displ. norm   :     0.2657889 α      lambda       -0.4094298E-04
   maximum displ.:     0.1420291 α      in ANC's #5, #11, #20, ...

........................................................................
.............................. CYCLE   50 ..............................
........................................................................
   1   -274.0282852 -0.274028E+03  0.298E-02    0.96       0.0  T
   2   -274.0282855 -0.269121E-06  0.175E-02    0.96       1.0  T
   3   -274.0282827  0.277085E-05  0.317E-03    0.96       2.5  T
   4   -274.0282856 -0.289116E-05  0.812E-04    0.96       9.8  T
   5   -274.0282857 -0.117035E-06  0.424E-04    0.96      18.8  T
   6   -274.0282857 -0.179071E-07  0.211E-04    0.96      37.7  T
     SCC iter.                  ...        0 min,  0.304 sec
     gradient                   ...        0 min,  0.214 sec
 * total energy  :  -268.9178630 Eh     change       -0.4129040E-04 Eh
   gradient norm :     0.0022298 Eh/α   predicted    -0.2111433E-04 ( -48.86%)
   displ. norm   :     0.2965056 α      lambda       -0.6996329E-04
   maximum displ.:     0.1568039 α      in ANC's #5, #11, #12, ...

........................................................................
.............................. CYCLE   51 ..............................
........................................................................
   1   -274.0277688 -0.274028E+03  0.329E-02    0.96       0.0  T
   2   -274.0277691 -0.340286E-06  0.193E-02    0.96       1.0  T
   3   -274.0277669  0.223514E-05  0.298E-03    0.96       2.7  T
   4   -274.0277692 -0.238100E-05  0.796E-04    0.96      10.0  T
   5   -274.0277693 -0.825961E-07  0.483E-04    0.96      16.5  T
   6   -274.0277694 -0.314270E-07  0.212E-04    0.96      37.5  T
     SCC iter.                  ...        0 min,  0.304 sec
     gradient                   ...        0 min,  0.214 sec
 * total energy  :  -268.9179092 Eh     change       -0.4621127E-04 Eh
   gradient norm :     0.0020800 Eh/α   predicted    -0.3805764E-04 ( -17.64%)
   displ. norm   :     0.2403838 α      lambda       -0.4101903E-04
   maximum displ.:     0.1324064 α      in ANC's #5, #11, #12, ...

........................................................................
.............................. CYCLE   52 ..............................
........................................................................
   1   -274.0282407 -0.274028E+03  0.231E-02    0.96       0.0  T
   2   -274.0282409 -0.214363E-06  0.135E-02    0.96       1.0  T
   3   -274.0282403  0.597729E-06  0.191E-03    0.96       4.2  T
   4   -274.0282410 -0.699489E-06  0.495E-04    0.96      16.1  T
   5   -274.0282410 -0.619747E-08  0.347E-04    0.96      22.9  T
     SCC iter.                  ...        0 min,  0.254 sec
     gradient                   ...        0 min,  0.214 sec
 * total energy  :  -268.9179446 Eh     change       -0.3538959E-04 Eh
   gradient norm :     0.0018035 Eh/α   predicted    -0.2169551E-04 ( -38.70%)
   displ. norm   :     0.4321795 α      lambda       -0.5995704E-04
   maximum displ.:     0.2425971 α      in ANC's #5, #11, #12, ...

........................................................................
.............................. CYCLE   53 ..............................
........................................................................
   1   -274.0302816 -0.274030E+03  0.398E-02    0.96       0.0  T
   2   -274.0302823 -0.717440E-06  0.233E-02    0.96       1.0  T
   3   -274.0302773  0.497861E-05  0.465E-03    0.96       1.7  T
   4   -274.0302827 -0.539961E-05  0.105E-03    0.96       7.6  T
   5   -274.0302828 -0.103330E-06  0.668E-04    0.96      11.9  T
   6   -274.0302828 -0.510680E-07  0.359E-04    0.96      22.1  T
     SCC iter.                  ...        0 min,  0.304 sec
     gradient                   ...        0 min,  0.214 sec
 * total energy  :  -268.9180115 Eh     change       -0.6685580E-04 Eh
   gradient norm :     0.0016160 Eh/α   predicted    -0.3247050E-04 ( -51.43%)
   displ. norm   :     0.3529625 α      lambda       -0.3805471E-04
   maximum displ.:     0.2040019 α      in ANC's #5, #11, #12, ...

........................................................................
.............................. CYCLE   54 ..............................
........................................................................
   1   -274.0306045 -0.274031E+03  0.311E-02    0.96       0.0  T
   2   -274.0306050 -0.436356E-06  0.182E-02    0.96       1.0  T
   3   -274.0306011  0.385089E-05  0.393E-03    0.96       2.0  T
   4   -274.0306053 -0.413954E-05  0.896E-04    0.96       8.9  T
   5   -274.0306053 -0.903241E-07  0.513E-04    0.96      15.5  T
   6   -274.0306054 -0.231652E-07  0.261E-04    0.96      30.5  T
     SCC iter.                  ...        0 min,  0.303 sec
     gradient                   ...        0 min,  0.214 sec
 * total energy  :  -268.9180580 Eh     change       -0.4657116E-04 Eh
   gradient norm :     0.0015977 Eh/α   predicted    -0.2008167E-04 ( -56.88%)
   displ. norm   :     0.2933731 α      lambda       -0.3519883E-04
   maximum displ.:     0.1749172 α      in ANC's #5, #11, #12, ...

........................................................................
.............................. CYCLE   55 ..............................
........................................................................
   1   -274.0313494 -0.274031E+03  0.259E-02    0.96       0.0  T
   2   -274.0313497 -0.264598E-06  0.152E-02    0.96       1.0  T
   3   -274.0313456  0.408445E-05  0.403E-03    0.96       2.0  T
   4   -274.0313500 -0.433929E-05  0.771E-04    0.96      10.3  T
   5   -274.0313500 -0.727825E-07  0.425E-04    0.96      18.7  T
   6   -274.0313501 -0.135548E-07  0.230E-04    0.96      34.6  T
     SCC iter.                  ...        0 min,  0.304 sec
     gradient                   ...        0 min,  0.214 sec
 * total energy  :  -268.9181026 Eh     change       -0.4459372E-04 Eh
   gradient norm :     0.0014534 Eh/α   predicted    -0.1827374E-04 ( -59.02%)
   displ. norm   :     0.3105787 α      lambda       -0.3843860E-04
   maximum displ.:     0.1883327 α      in ANC's #5, #11, #12, ...

........................................................................
.............................. CYCLE   56 ..............................
........................................................................
   1   -274.0312898 -0.274031E+03  0.275E-02    0.96       0.0  T
   2   -274.0312901 -0.294912E-06  0.161E-02    0.96       1.0  T
   3   -274.0312866  0.349552E-05  0.401E-03    0.96       2.0  T
   4   -274.0312904 -0.375126E-05  0.752E-04    0.96      10.6  T
   5   -274.0312904 -0.507844E-07  0.431E-04    0.96      18.5  T
   6   -274.0312904 -0.124874E-07  0.216E-04    0.96      36.9  T
     SCC iter.                  ...        0 min,  0.303 sec
     gradient                   ...        0 min,  0.214 sec
 * total energy  :  -268.9181511 Eh     change       -0.4842904E-04 Eh
   gradient norm :     0.0012484 Eh/α   predicted    -0.2004526E-04 ( -58.61%)
   displ. norm   :     0.3485661 α      lambda       -0.4060821E-04
   maximum displ.:     0.2134321 α      in ANC's #5, #11, #12, ...

........................................................................
.............................. CYCLE   57 ..............................
........................................................................
   1   -274.0309309 -0.274031E+03  0.305E-02    0.96       0.0  T
   2   -274.0309313 -0.348830E-06  0.179E-02    0.96       1.0  T
   3   -274.0309281  0.319777E-05  0.398E-03    0.96       2.0  T
   4   -274.0309315 -0.345620E-05  0.785E-04    0.96      10.1  T
   5   -274.0309316 -0.514628E-07  0.452E-04    0.96      17.6  T
   6   -274.0309316 -0.135731E-07  0.214E-04    0.96      37.2  T
     SCC iter.                  ...        0 min,  0.303 sec
     gradient                   ...        0 min,  0.214 sec
 * total energy  :  -268.9182023 Eh     change       -0.5123848E-04 Eh
   gradient norm :     0.0012960 Eh/α   predicted    -0.2140218E-04 ( -58.23%)
   displ. norm   :     0.3806536 α      lambda       -0.4266024E-04
   maximum displ.:     0.2348076 α      in ANC's #5, #11, #12, ...

........................................................................
.............................. CYCLE   58 ..............................
........................................................................
   1   -274.0304447 -0.274030E+03  0.328E-02    0.95       0.0  T
   2   -274.0304451 -0.341756E-06  0.192E-02    0.95       1.0  T
   3   -274.0304410  0.409375E-05  0.430E-03    0.95       1.8  T
   4   -274.0304454 -0.438645E-05  0.797E-04    0.95      10.0  T
   5   -274.0304454 -0.578615E-07  0.455E-04    0.95      17.5  T
   6   -274.0304454 -0.139034E-07  0.224E-04    0.95      35.5  T
     SCC iter.                  ...        0 min,  0.304 sec
     gradient                   ...        0 min,  0.214 sec
 * total energy  :  -268.9182571 Eh     change       -0.5476850E-04 Eh
   gradient norm :     0.0014304 Eh/α   predicted    -0.2270601E-04 ( -58.54%)
   displ. norm   :     0.4254283 α      lambda       -0.4797335E-04
   maximum displ.:     0.2639900 α      in ANC's #5, #11, #7, ...

........................................................................
.............................. CYCLE   59 ..............................
........................................................................
   1   -274.0298089 -0.274030E+03  0.358E-02    0.95       0.0  T
   2   -274.0298093 -0.380769E-06  0.209E-02    0.95       1.0  T
   3   -274.0298042  0.500535E-05  0.452E-03    0.95       1.8  T
   4   -274.0298096 -0.532776E-05  0.883E-04    0.95       9.0  T
   5   -274.0298097 -0.923977E-07  0.478E-04    0.95      16.7  T
   6   -274.0298097 -0.119585E-07  0.260E-04    0.95      30.6  T
     SCC iter.                  ...        0 min,  0.304 sec
     gradient                   ...        0 min,  0.214 sec
 * total energy  :  -268.9183191 Eh     change       -0.6204318E-04 Eh
   gradient norm :     0.0014855 Eh/α   predicted    -0.2592030E-04 ( -58.22%)
   displ. norm   :     0.4637133 α      lambda       -0.5230875E-04
   maximum displ.:     0.2896904 α      in ANC's #5, #11, #7, ...

........................................................................
.............................. CYCLE   60 ..............................
........................................................................
   1   -274.0293661 -0.274029E+03  0.382E-02    0.95       0.0  T
   2   -274.0293665 -0.407135E-06  0.224E-02    0.95       1.0  T
   3   -274.0293613  0.528493E-05  0.465E-03    0.95       1.7  T
   4   -274.0293669 -0.563775E-05  0.916E-04    0.95       8.7  T
   5   -274.0293670 -0.988445E-07  0.491E-04    0.95      16.2  T
   6   -274.0293670 -0.114296E-07  0.280E-04    0.95      28.4  T
     SCC iter.                  ...        0 min,  0.304 sec
     gradient                   ...        0 min,  0.214 sec
 * total energy  :  -268.9183860 Eh     change       -0.6686521E-04 Eh
   gradient norm :     0.0014705 Eh/α   predicted    -0.2865670E-04 ( -57.14%)
   displ. norm   :     0.4776034 α      lambda       -0.5102681E-04
   maximum displ.:     0.3011809 α      in ANC's #5, #7, #11, ...

[...]
  97:  5.34  98:  4.78  99: 28.51 100:  5.14 101: 96.95 102: 29.13 103:  2.13 104:  1.50
 105:  1.30 106:  0.52 107:  0.60 108: 14.72 109:  1.25 110:  2.31 111:  2.31 112:  0.05
 113: 10.72 114:  1.42 115:  0.15 116:  4.17 117:  0.11 118:  5.91 119:  1.30 120:  0.59
 121: 10.20 122:  0.52 123: 47.72 124: 13.22 125:  1.64 126:  0.27 127:  1.53 128:  0.18
 129:  0.41 130:  0.29 131: 21.68 132:  2.34 133: 76.49 134:  5.52 135: 65.38 136: 16.69
 137: 46.87 138: 11.50 139: 23.19 140: 68.22 141: 45.26 142: 11.90 143:  3.87 144:  1.79
 145:  1.66 146:  1.62 147:  0.14 148:  1.75 149:  1.64 150:  0.13 151:  0.84 152: 44.74
 153: 70.22 154:  9.13 155:  7.16 156:  9.20 157: 19.34 158: 12.65 159:  9.80 160:  0.75
 161:  2.45 162:  2.16 163:  5.67 164:  9.28 165: 15.59 166:  0.58 167:  0.21 168:  6.75
 169:  5.99 170:  1.81 171:  4.66 172:  1.79 173:  1.90 174:  0.11 175:  1.18 176: 25.64
 177:  9.76 178:  6.41 179: 32.18 180:204.07 181:187.26 182: 85.29 183: 48.99 184: 73.37
 185:209.02 186: 38.50 187: 41.16 188: 19.08 189:  3.59 190: 81.23 191:148.25 192:  4.62
 193:  1.18 194:103.47 195:101.45 196: 11.71 197:  7.76 198: 64.34 199: 74.64 200:216.09
 201: 13.34 202: 32.53 203: 26.91 204: 10.78 205:  2.29 206: 20.70 207:115.51 208: 14.25
 209: 68.57 210:  8.33 211:  6.25 212:  5.56 213:  3.73 214: 42.98 215: 23.20 216:  1.51
 217: 20.54 218:  7.99 219:  1.15 220:  2.50 221:  2.52 222: 37.30 223: 22.99 224: 61.55
 225:  4.54 226:142.55 227:  6.07 228:100.95 229: 85.94 230: 39.84 231: 37.57 232:  3.85
 233:282.90 234: 45.85 235:383.66 236:120.28 237: 18.60 238:  5.60 239:170.76 240: 41.56
 241: 15.54 242:  0.78 243: 38.55 244: 58.07 245: 17.70 246: 13.38 247: 22.55 248: 12.81
 249: 32.22 250: 39.69 251: 63.15 252: 27.80 253:  2.90 254:  0.24 255:  1.52 256:  3.29
 257:  1.88 258:****** 259:978.86 260:358.39 261:****** 262:869.48 263:361.47 264: 83.48
 265:100.80 266:418.49 267:305.06 268:481.84 269:390.46 270: 72.82 271: 18.89 272:  2.80
 273: 15.02 274:  1.15 275: 17.44 276:  0.88 277: 10.72 278: 11.03 279:  5.02 280:  0.80
 281:  1.61 282:  0.66 283:175.96 284: 96.27 285: 39.82 286: 59.67 287: 32.57 288: 47.44
 289:  6.34 290:  1.98 291: 26.41 292: 35.87 293:121.66 294:196.67 295:  2.99 296: 13.78
 297: 50.08 298: 36.24 299: 24.28 300: 38.32 301: 63.37 302: 22.16 303:103.79 304:488.95
 305: 38.37 306:842.06 307:170.14 308: 24.69 309: 18.41 310:230.48 311:  0.76 312:122.36
 313: 25.48 314: 37.32 315:  1.10 316: 43.23 317:115.50 318:122.83 319: 96.27 320:149.50
 321:775.86 322: 46.54 323: 29.11 324: 57.21 325:211.62 326: 40.91 327: 30.08 328: 36.53
 329:100.71 330: 67.03 331: 14.59 332:151.62 333: 39.97 334:  3.29 335: 10.32 336:  0.44
 337:  0.62 338:  7.04 339:  6.55 340:  2.21 341:  3.23 342:  7.53 343:  9.15 344:160.06
 345:276.02 346: 38.96 347:150.23 348: 63.29 349: 28.22 350: 33.23 351: 62.71 352:  5.89
 353:  4.52 354: 23.72 355: 15.46 356: 15.93 357:463.90 358:106.95 359: 77.83 360: 41.73
 361:160.79 362:  5.26 363:  4.88 364:  6.38 365:  1.76 366:  0.11 367:  8.70 368: 11.46
 369:  6.96 370: 10.90 371: 16.39 372: 31.69 373: 29.42 374: 77.92 375:  0.09 376:  1.75
 377:  0.00 378:  2.07 379:  0.60 380:  2.52 381:  2.78 382:  2.27 383:121.51 384: 31.35
 385:  3.41 386: 18.06 387:  1.83 388: 28.24 389:  5.24 390: 19.94 391: 14.42 392: 10.30
 393: 22.75 394: 41.42 395: 70.49 396: 32.60 397: 34.83 398:  7.99 399:  0.20 400:  0.47
 401:143.28 402: 51.82 403: 38.11 404: 34.19 405:  4.40 406:  6.22 407:  4.86 408:  9.06
 409: 19.58 410: 14.93 411:504.96 412: 12.29 413: 23.82 414: 18.37 415:  0.53 416:  0.85
 417: 50.28 418: 34.87 419:  5.28 420: 15.08 421:  0.36 422:  0.52 423:  9.02 424: 28.78
 425:****** 426:****** 427: 15.53 428:****** 429: 46.73 430: 12.97 431: 28.32 432: 21.14
 433:  8.32 434: 15.93 435: 35.78 436:  8.97 437: 34.18 438: 38.25 439:  7.03 440: 16.88
 441:  7.53 442: 33.65 443:195.06 444:127.21 445: 55.02 446: 18.92 447:537.86 448: 47.29
 449: 50.30 450:  0.54 451: 17.13 452: 22.04 453:  4.93 454:140.36 455:  3.43 456: 62.74
 457: 48.08 458: 31.82 459:101.02 460: 87.01 461: 68.86 462:  2.29 463:  5.64 464:  8.27
 465:  9.33 466: 25.49 467:****** 468:****** 469:  0.93 470: 24.01 471:****** 472:******
 473:842.36 474:568.95
 Raman intensities (amu)
   1:  0.00   2:  0.00   3:  0.00   4:  0.00   5:  0.00   6:  0.00   7:  0.00   8:  0.00
   9:  0.00  10:  0.00  11:  0.00  12:  0.00  13:  0.00  14:  0.00  15:  0.00  16:  0.00
  17:  0.00  18:  0.00  19:  0.00  20:  0.00  21:  0.00  22:  0.00  23:  0.00  24:  0.00
  25:  0.00  26:  0.00  27:  0.00  28:  0.00  29:  0.00  30:  0.00  31:  0.00  32:  0.00
  33:  0.00  34:  0.00  35:  0.00  36:  0.00  37:  0.00  38:  0.00  39:  0.00  40:  0.00
  41:  0.00  42:  0.00  43:  0.00  44:  0.00  45:  0.00  46:  0.00  47:  0.00  48:  0.00
  49:  0.00  50:  0.00  51:  0.00  52:  0.00  53:  0.00  54:  0.00  55:  0.00  56:  0.00
  57:  0.00  58:  0.00  59:  0.00  60:  0.00  61:  0.00  62:  0.00  63:  0.00  64:  0.00
  65:  0.00  66:  0.00  67:  0.00  68:  0.00  69:  0.00  70:  0.00  71:  0.00  72:  0.00
  73:  0.00  74:  0.00  75:  0.00  76:  0.00  77:  0.00  78:  0.00  79:  0.00  80:  0.00
  81:  0.00  82:  0.00  83:  0.00  84:  0.00  85:  0.00  86:  0.00  87:  0.00  88:  0.00
  89:  0.00  90:  0.00  91:  0.00  92:  0.00  93:  0.00  94:  0.00  95:  0.00  96:  0.00
  97:  0.00  98:  0.00  99:  0.00 100:  0.00 101:  0.00 102:  0.00 103:  0.00 104:  0.00
 105:  0.00 106:  0.00 107:  0.00 108:  0.00 109:  0.00 110:  0.00 111:  0.00 112:  0.00
 113:  0.00 114:  0.00 115:  0.00 116:  0.00 117:  0.00 118:  0.00 119:  0.00 120:  0.00
 121:  0.00 122:  0.00 123:  0.00 124:  0.00 125:  0.00 126:  0.00 127:  0.00 128:  0.00
 129:  0.00 130:  0.00 131:  0.00 132:  0.00 133:  0.00 134:  0.00 135:  0.00 136:  0.00
 137:  0.00 138:  0.00 139:  0.00 140:  0.00 141:  0.00 142:  0.00 143:  0.00 144:  0.00
Refinement of some symmetry elements was terminated before convergence was reached.
Some symmetry elements may remain unidentified.
Molecule has no symmetry elements
It seems to be the C1 point group
 145:  0.00 146:  0.00 147:  0.00 148:  0.00 149:  0.00 150:  0.00 151:  0.00 152:  0.00
 153:  0.00 154:  0.00 155:  0.00 156:  0.00 157:  0.00 158:  0.00 159:  0.00 160:  0.00
 161:  0.00 162:  0.00 163:  0.00 164:  0.00 165:  0.00 166:  0.00 167:  0.00 168:  0.00
 169:  0.00 170:  0.00 171:  0.00 172:  0.00 173:  0.00 174:  0.00 175:  0.00 176:  0.00
 177:  0.00 178:  0.00 179:  0.00 180:  0.00 181:  0.00 182:  0.00 183:  0.00 184:  0.00
 185:  0.00 186:  0.00 187:  0.00 188:  0.00 189:  0.00 190:  0.00 191:  0.00 192:  0.00
 193:  0.00 194:  0.00 195:  0.00 196:  0.00 197:  0.00 198:  0.00 199:  0.00 200:  0.00
 201:  0.00 202:  0.00 203:  0.00 204:  0.00 205:  0.00 206:  0.00 207:  0.00 208:  0.00
 209:  0.00 210:  0.00 211:  0.00 212:  0.00 213:  0.00 214:  0.00 215:  0.00 216:  0.00
 217:  0.00 218:  0.00 219:  0.00 220:  0.00 221:  0.00 222:  0.00 223:  0.00 224:  0.00
 225:  0.00 226:  0.00 227:  0.00 228:  0.00 229:  0.00 230:  0.00 231:  0.00 232:  0.00
 233:  0.00 234:  0.00 235:  0.00 236:  0.00 237:  0.00 238:  0.00 239:  0.00 240:  0.00
 241:  0.00 242:  0.00 243:  0.00 244:  0.00 245:  0.00 246:  0.00 247:  0.00 248:  0.00
 249:  0.00 250:  0.00 251:  0.00 252:  0.00 253:  0.00 254:  0.00 255:  0.00 256:  0.00
 257:  0.00 258:  0.00 259:  0.00 260:  0.00 261:  0.00 262:  0.00 263:  0.00 264:  0.00
 265:  0.00 266:  0.00 267:  0.00 268:  0.00 269:  0.00 270:  0.00 271:  0.00 272:  0.00
 273:  0.00 274:  0.00 275:  0.00 276:  0.00 277:  0.00 278:  0.00 279:  0.00 280:  0.00
 281:  0.00 282:  0.00 283:  0.00 284:  0.00 285:  0.00 286:  0.00 287:  0.00 288:  0.00
 289:  0.00 290:  0.00 291:  0.00 292:  0.00 293:  0.00 294:  0.00 295:  0.00 296:  0.00
 297:  0.00 298:  0.00 299:  0.00 300:  0.00 301:  0.00 302:  0.00 303:  0.00 304:  0.00
 305:  0.00 306:  0.00 307:  0.00 308:  0.00 309:  0.00 310:  0.00 311:  0.00 312:  0.00
 313:  0.00 314:  0.00 315:  0.00 316:  0.00 317:  0.00 318:  0.00 319:  0.00 320:  0.00
 321:  0.00 322:  0.00 323:  0.00 324:  0.00 325:  0.00 326:  0.00 327:  0.00 328:  0.00
 329:  0.00 330:  0.00 331:  0.00 332:  0.00 333:  0.00 334:  0.00 335:  0.00 336:  0.00
 337:  0.00 338:  0.00 339:  0.00 340:  0.00 341:  0.00 342:  0.00 343:  0.00 344:  0.00
 345:  0.00 346:  0.00 347:  0.00 348:  0.00 349:  0.00 350:  0.00 351:  0.00 352:  0.00
 353:  0.00 354:  0.00 355:  0.00 356:  0.00 357:  0.00 358:  0.00 359:  0.00 360:  0.00
 361:  0.00 362:  0.00 363:  0.00 364:  0.00 365:  0.00 366:  0.00 367:  0.00 368:  0.00
 369:  0.00 370:  0.00 371:  0.00 372:  0.00 373:  0.00 374:  0.00 375:  0.00 376:  0.00
 377:  0.00 378:  0.00 379:  0.00 380:  0.00 381:  0.00 382:  0.00 383:  0.00 384:  0.00
 385:  0.00 386:  0.00 387:  0.00 388:  0.00 389:  0.00 390:  0.00 391:  0.00 392:  0.00
 393:  0.00 394:  0.00 395:  0.00 396:  0.00 397:  0.00 398:  0.00 399:  0.00 400:  0.00
 401:  0.00 402:  0.00 403:  0.00 404:  0.00 405:  0.00 406:  0.00 407:  0.00 408:  0.00
 409:  0.00 410:  0.00 411:  0.00 412:  0.00 413:  0.00 414:  0.00 415:  0.00 416:  0.00
 417:  0.00 418:  0.00 419:  0.00 420:  0.00 421:  0.00 422:  0.00 423:  0.00 424:  0.00
 425:  0.00 426:  0.00 427:  0.00 428:  0.00 429:  0.00 430:  0.00 431:  0.00 432:  0.00
 433:  0.00 434:  0.00 435:  0.00 436:  0.00 437:  0.00 438:  0.00 439:  0.00 440:  0.00
 441:  0.00 442:  0.00 443:  0.00 444:  0.00 445:  0.00 446:  0.00 447:  0.00 448:  0.00
 449:  0.00 450:  0.00 451:  0.00 452:  0.00 453:  0.00 454:  0.00 455:  0.00 456:  0.00
 457:  0.00 458:  0.00 459:  0.00 460:  0.00 461:  0.00 462:  0.00 463:  0.00 464:  0.00
 465:  0.00 466:  0.00 467:  0.00 468:  0.00 469:  0.00 470:  0.00 471:  0.00 472:  0.00
 473:  0.00 474:  0.00
 output can be read by thermo (or use thermo option).
 writing <g98.out> molden fake output.
 recommended (thermochemical) frequency scaling factor: 1.0
           -------------------------------------------------
          |             Thermodynamic Functions             |
           -------------------------------------------------

c1  symmetry found (for desy threshold:  0.10E+00) used in thermo
 inverting freq            1   2.4854634842608436     
 inverting freq            2   1.9969505262820471     

          ...................................................
          :                      SETUP                      :
          :.................................................:
          :  # frequencies                         467      :
          :  # imaginary freq.                       0      :
          :  linear?                             false      :
          :  only rotor calc.                    false      :
          :  symmetry                               c1      :
          :  rotational number                       1      :
          :  scaling factor                  1.0000000      :
          :  rotor cutoff                   50.0000000 cm⁻¹ :
          :  imag. cutoff                  -20.0000000 cm⁻¹ :
          :.................................................:

    mode    ω/cm⁻¹     T·S(HO)/kcal·mol⁻¹    T·S(FR)/kcal·mol⁻¹   T·S(vib)
   ------------------------------------------------------------------------
       1      2.49    -3.21325 (  0.00%)    -1.94573 (100.00%)    -1.94574
       2      2.00    -3.34291 (  0.00%)    -2.01056 (100.00%)    -2.01056
       3      4.34    -2.88365 (  0.01%)    -1.78093 ( 99.99%)    -1.78100
       4      5.13    -2.78444 (  0.01%)    -1.73132 ( 99.99%)    -1.73144
       5      5.93    -2.69830 (  0.02%)    -1.68825 ( 99.98%)    -1.68845
       6      7.90    -2.52782 (  0.06%)    -1.60301 ( 99.94%)    -1.60358
       7      9.26    -2.43428 (  0.12%)    -1.55623 ( 99.88%)    -1.55726
       8     10.08    -2.38358 (  0.17%)    -1.53088 ( 99.83%)    -1.53228
       9     14.52    -2.16774 (  0.71%)    -1.42293 ( 99.29%)    -1.42818
      10     20.65    -1.95917 (  2.82%)    -1.31858 ( 97.18%)    -1.33668
      11     22.69    -1.90315 (  4.07%)    -1.29055 ( 95.93%)    -1.31549
      12     23.25    -1.88880 (  4.47%)    -1.28336 ( 95.53%)    -1.31041
      13     29.70    -1.74403 ( 11.07%)    -1.21088 ( 88.93%)    -1.26989
      14     31.39    -1.71127 ( 13.44%)    -1.19447 ( 86.56%)    -1.26395
      15     37.56    -1.60522 ( 24.15%)    -1.14132 ( 75.85%)    -1.25334
      16     41.42    -1.54736 ( 32.02%)    -1.11230 ( 67.98%)    -1.25161
      17     42.32    -1.53474 ( 33.91%)    -1.10597 ( 66.09%)    -1.25137
      18     42.42    -1.53328 ( 34.13%)    -1.10524 ( 65.87%)    -1.25134
      19     42.74    -1.52882 ( 34.81%)    -1.10300 ( 65.19%)    -1.25125
      20     43.12    -1.52358 ( 35.62%)    -1.10037 ( 64.38%)    -1.25114
      21     47.97    -1.46073 ( 45.87%)    -1.06882 ( 54.13%)    -1.24858
      22     59.25    -1.33635 ( 66.35%)    -1.00628 ( 33.65%)    -1.22527
      23     59.51    -1.33376 ( 66.74%)    -1.00498 ( 33.26%)    -1.22440
      24     61.50    -1.31440 ( 69.59%)    -0.99523 ( 30.41%)    -1.21735
      25     69.53    -1.24231 ( 78.90%)    -0.95889 ( 21.10%)    -1.18250
      26     70.93    -1.23055 ( 80.20%)    -0.95295 ( 19.80%)    -1.17558
      27     89.42    -1.09504 ( 91.09%)    -0.88435 (  8.91%)    -1.07628
      28     95.46    -1.05691 ( 93.00%)    -0.86497 (  7.00%)    -1.04348
      29     96.06    -1.05327 ( 93.16%)    -0.86311 (  6.84%)    -1.04026
      30     96.84    -1.04859 ( 93.36%)    -0.86073 (  6.64%)    -1.03613
      31     97.36    -1.04546 ( 93.50%)    -0.85914 (  6.50%)    -1.03335
      32    105.54    -0.99861 ( 95.20%)    -0.83524 (  4.80%)    -0.99077
      33    107.77    -0.98647 ( 95.57%)    -0.82904 (  4.43%)    -0.97950
      34    113.18    -0.95812 ( 96.33%)    -0.81452 (  3.67%)    -0.95285
      35    115.40    -0.94692 ( 96.60%)    -0.80878 (  3.40%)    -0.94222
      36    115.98    -0.94402 ( 96.66%)    -0.80729 (  3.34%)    -0.93946
      37    117.25    -0.93776 ( 96.80%)    -0.80408 (  3.20%)    -0.93348
      38    117.32    -0.93741 ( 96.81%)    -0.80390 (  3.19%)    -0.93315
      39    131.72    -0.87083 ( 97.97%)    -0.76960 (  2.03%)    -0.86877
      40    133.02    -0.86522 ( 98.04%)    -0.76669 (  1.96%)    -0.86329
      41    134.54    -0.85871 ( 98.13%)    -0.76332 (  1.87%)    -0.85693
      42    136.04    -0.85235 ( 98.21%)    -0.76003 (  1.79%)    -0.85070
      43    139.20    -0.83923 ( 98.36%)    -0.75322 (  1.64%)    -0.83782
      44    139.91    -0.83635 ( 98.39%)    -0.75173 (  1.61%)    -0.83499
      45    142.91    -0.82423 ( 98.52%)    -0.74543 (  1.48%)    -0.82307
      46    143.04    -0.82372 ( 98.53%)    -0.74517 (  1.47%)    -0.82257
      47    146.99    -0.80824 ( 98.68%)    -0.73711 (  1.32%)    -0.80730
      48    151.49    -0.79112 ( 98.83%)    -0.72817 (  1.17%)    -0.79039
      49    154.76    -0.77902 ( 98.92%)    -0.72184 (  1.08%)    -0.77841
      50    174.90    -0.71023 ( 99.34%)    -0.68559 (  0.66%)    -0.71006
      51    180.92    -0.69138 ( 99.42%)    -0.67558 (  0.58%)    -0.69129
      52    181.80    -0.68867 ( 99.43%)    -0.67413 (  0.57%)    -0.68858
      53    183.82    -0.68254 ( 99.46%)    -0.67086 (  0.54%)    -0.68248
      54    184.95    -0.67913 ( 99.47%)    -0.66904 (  0.53%)    -0.67908
      55    192.13    -0.65806 ( 99.54%)    -0.65776 (  0.46%)    -0.65806
      56    198.32    -0.64062 ( 99.60%)    -0.64837 (  0.40%)    -0.64065
      57    199.45    -0.63749 ( 99.61%)    -0.64669 (  0.39%)    -0.63753
      58    200.62    -0.63430 ( 99.62%)    -0.64496 (  0.38%)    -0.63434
      59    201.82    -0.63102 ( 99.62%)    -0.64319 (  0.38%)    -0.63107
      60    202.76    -0.62847 ( 99.63%)    -0.64181 (  0.37%)    -0.62852
      61    203.39    -0.62678 ( 99.64%)    -0.64089 (  0.36%)    -0.62683
      62    203.68    -0.62599 ( 99.64%)    -0.64047 (  0.36%)    -0.62604
      63    215.17    -0.59610 ( 99.71%)    -0.62421 (  0.29%)    -0.59618
      64    252.66    -0.51041 ( 99.85%)    -0.57663 (  0.15%)    -0.51051
      65    255.98    -0.50359 ( 99.85%)    -0.57277 (  0.15%)    -0.50369
      66    263.98    -0.48756 ( 99.87%)    -0.56365 (  0.13%)    -0.48766
      67    264.77    -0.48601 ( 99.87%)    -0.56276 (  0.13%)    -0.48611
      68    265.30    -0.48498 ( 99.87%)    -0.56217 (  0.13%)    -0.48508
      69    265.39    -0.48481 ( 99.87%)    -0.56207 (  0.13%)    -0.48491
      70    265.84    -0.48392 ( 99.88%)    -0.56156 (  0.12%)    -0.48402
      71    266.07    -0.48347 ( 99.88%)    -0.56131 (  0.12%)    -0.48357
      72    268.91    -0.47799 ( 99.88%)    -0.55816 (  0.12%)    -0.47809
      73    270.56    -0.47484 ( 99.88%)    -0.55635 (  0.12%)    -0.47493
      74    276.27    -0.46412 ( 99.89%)    -0.55017 (  0.11%)    -0.46421
      75    279.45    -0.45827 ( 99.90%)    -0.54678 (  0.10%)    -0.45836
      76    282.89    -0.45203 ( 99.90%)    -0.54315 (  0.10%)    -0.45212
      77    291.59    -0.43670 ( 99.91%)    -0.53418 (  0.09%)    -0.43679
      78    293.68    -0.43311 ( 99.92%)    -0.53206 (  0.08%)    -0.43319
      79    299.08    -0.42399 ( 99.92%)    -0.52667 (  0.08%)    -0.42407
      80    299.40    -0.42345 ( 99.92%)    -0.52635 (  0.08%)    -0.42353
   ------------------------------------------------------------------------

   temp. (K)  partition function   enthalpy   heat capacity  entropy
                                   cal/mol     cal/K/mol   cal/K/mol   J/K/mol
 298.15  VIB  0.443E+46            53025.542    343.796    338.443
         ROT  0.218E+10              888.752      2.981     45.709
         INT  0.965E+55            53914.294    346.777    384.152
         TR   0.496E+29             1481.254      4.968     47.519
         TOT                       55395.5483   351.7452   431.6713  1806.1129

       T/K    H(0)-H(T)+PV         H(T)/Eh          T*S/Eh         G(T)/Eh
   ------------------------------------------------------------------------
    298.15    0.882784E-01    0.122556E+01    0.205101E+00    0.102046E+01
   ------------------------------------------------------------------------

         :::::::::::::::::::::::::::::::::::::::::::::::::::::
         ::                  THERMODYNAMIC                  ::
         :::::::::::::::::::::::::::::::::::::::::::::::::::::
         :: total free energy        -267.900443683130 Eh   ::
         ::.................................................::
         :: total energy             -268.920904216617 Eh   ::
         :: zero point energy           1.137283092145 Eh   ::
         :: G(RRHO) w/o ZPVE           -0.116822558657 Eh   ::
         :: G(RRHO) contrib.            1.020460533487 Eh   ::
         :::::::::::::::::::::::::::::::::::::::::::::::::::::

optimized geometry written to: xtbopt.xyz


           -------------------------------------------------
          | TOTAL ENERGY             -268.920904216617 Eh   |
          | TOTAL ENTHALPY           -267.695342699075 Eh   |
          | TOTAL FREE ENERGY        -267.900443683130 Eh   |
          | GRADIENT NORM               0.000939488836 Eh/α |
          | HOMO-LUMO GAP               0.889860769653 eV   |
           -------------------------------------------------

------------------------------------------------------------------------
 * finished run on 2021/11/18 at 17:52:20.601     
------------------------------------------------------------------------
 total:
 * wall-time:     0 d,  0 h,  9 min, 53.590 sec
 *  cpu-time:     0 d,  0 h,  9 min, 53.576 sec
 * ratio c/w:     1.000 speedup
 SCF:
 * wall-time:     0 d,  0 h,  0 min,  1.136 sec
 *  cpu-time:     0 d,  0 h,  0 min,  1.136 sec
 * ratio c/w:     1.000 speedup
 ANC optimizer:
 * wall-time:     0 d,  0 h,  1 min, 37.140 sec
 *  cpu-time:     0 d,  0 h,  1 min, 37.122 sec
 * ratio c/w:     1.000 speedup
 analytical hessian:
 * wall-time:     0 d,  0 h,  8 min, 15.052 sec
 *  cpu-time:     0 d,  0 h,  8 min, 15.057 sec
 * ratio c/w:     1.000 speedup

