158
 energy: -268.391925241885 gnorm: 0.466338163783 xtb: 6.4.1 (bd6e46d)
C       -18.48728500000000   -2.89978200000000    2.33002700000000
C       -17.32018100000001   -2.27834200000000    2.31882900000000
C       -17.44139800000000   -1.07765700000000    1.52544200000000
C       -16.56833500000000   -0.01047900000000    1.15500900000000
C       -16.95957400000000    1.27503400000000    0.72843000000000
C       -16.37389100000000    2.39333200000000    1.35225500000000
C       -16.94494900000000    3.46848800000000    0.77065300000000
C       -17.87306100000000    3.02263900000000   -0.20226800000000
N       -17.85222100000000    1.68479500000000   -0.20225200000000
C       -18.60384300000000    3.97874100000000   -0.91609300000000
C       -19.95652400000000    3.88658500000000   -1.27597900000000
C       -20.90155600000000    4.71831300000000   -2.00533300000000
C       -22.05487000000000    4.07372300000000   -2.02774100000000
C       -21.94138500000000    2.80414300000000   -1.32735000000000
N       -20.66802400000000    2.80997600000000   -0.93296500000000
C       -22.77912000000000    1.73801100000000   -1.02873900000000
C       -22.49591300000001    0.59064600000000   -0.23763000000000
C       -23.39754500000000    0.09955700000000    0.73445000000000
C       -22.84124500000000   -0.97048400000000    1.33407400000000
C       -21.59094400000000   -1.14633900000000    0.73353200000000
N       -21.41363000000000   -0.19562500000000   -0.20509500000000
C       -20.74795200000000   -2.19110900000000    1.14834700000000
C       -19.38498600000000   -2.09721500000000    1.53424600000000
N       -18.70306000000000   -1.06024200000000    1.10342500000000
H       -18.77480300000000   -3.82124100000000    2.82008300000000
H       -16.39157300000000   -2.58391400000000    2.81501400000000
H       -15.60445000000000    2.41527800000000    2.14534300000000
H       -16.67771800000000    4.50101100000000    1.05437800000000
H       -18.44887000000000    1.02843200000000   -0.87709300000000
H       -18.15973800000000    4.90811600000000   -1.24537200000000
H       -20.68097400000000    5.68205500000000   -2.44451500000000
H       -22.97995600000000    4.40965600000000   -2.49737800000000
H       -23.78581100000000    1.78431900000000   -1.42405000000000
H       -24.40602800000000    0.53656100000000    0.95017700000000
H       -23.30368700000000   -1.57677500000000    2.13354600000000
H       -20.49646900000000   -0.11332900000000   -0.87008800000000
H       -21.16773100000000   -3.23398900000000    1.22861800000000
C        17.88395200000000   -1.09608700000000   -3.44051600000000
C        16.83279200000000   -0.43163600000000   -2.94691000000000
C        17.21909900000000    0.23656600000000   -1.72040700000000
C        16.58897400000000    1.06235000000000   -0.76951700000000
C        17.23343800000000    1.88716400000000    0.15934300000000
C        16.73867100000000    3.20577900000000    0.32816600000000
C        17.54659900000000    3.79556900000000    1.25024200000000
C        18.51299200000000    2.82126300000000    1.61868400000000
N        18.29938700000000    1.67981000000000    0.94855600000000
C        19.49349100000000    3.18970100000000    2.54962500000000
C        20.86631000000000    2.90799500000000    2.47882200000000
C        22.08959800000000    3.40315000000000    3.07023600000000
C        23.13827900000000    2.73030900000000    2.60258500000000
C        22.59510000000000    1.76100100000000    1.67524500000000
N        21.24691600000000    1.91843500000000    1.64703800000000
C        23.19177500000000    0.79489200000000    0.87410700000000
C        22.53218600000000   -0.04044400000000   -0.05492200000000
C        22.90195700000000   -1.39966000000000   -0.10051000000000
C        22.09583000000000   -1.97513800000000   -1.04168900000000
C        21.26878400000000   -0.95021800000000   -1.53126200000000
N        21.54585500000000    0.21710900000000   -0.92927100000000
C        20.30429000000000   -1.28261600000000   -2.50741600000000
C        18.98023800000000   -0.86194200000000   -2.52420500000000
N        18.51343400000000   -0.07145400000000   -1.54019800000000
H        17.87942500000000   -1.68274800000000   -4.34774600000000
H        15.83295800000000   -0.38873200000000   -3.38254200000000
H        15.87200400000000    3.67814000000000   -0.16765000000000
H        17.44502100000000    4.83167900000000    1.63088300000000
H        18.88079600000000    0.73135500000000    1.05152100000000
H        19.21333100000000    3.77489900000000    3.44918600000000
H        22.12161100000000    4.22360200000000    3.80262500000000
H        24.17167500000000    2.88806700000000    2.87079600000000
H        24.28745900000000    0.68990400000000    1.01891000000000
H        23.67927600000000   -1.92579800000000    0.48111300000000
H        22.12946800000000   -3.04328100000000   -1.33166600000000
H        21.07182200000000    1.20725300000000   -1.13367800000000
H        20.58487300000000   -1.94871100000000   -3.34044600000000
C       -15.19826600000000   -0.43117800000000    1.26349000000000
C       -14.01867200000000   -0.76453300000000    1.29566800000000
C       -12.65876400000000   -1.13064000000000    1.26324000000000
C       -11.47035500000000   -1.42473100000000    1.18031800000000
C        -1.90703600000000   -1.58617100000000    0.14197000000000
C        -0.73400100000000   -1.37635700000000   -0.07818300000000
C         0.62449900000000   -1.08469400000000   -0.32453200000000
C         1.78409800000000   -0.79812700000000   -0.51465900000000
C        11.32346800000000    0.59948700000000   -1.13531900000000
C        12.52120600000000    0.75854400000000   -1.04332700000000
C        13.92075300000000    0.90354300000000   -0.93645800000000
C        15.13479600000000    0.99505100000000   -0.85253900000000
C        -9.68618600000000   -2.97639500000000   -2.35533800000000
C       -10.51437800000000   -2.77809600000000   -1.32968100000000
C        -9.74303300000000   -2.15920400000000   -0.27508000000000
C       -10.06867000000000   -1.73318400000000    1.02563400000000
C        -9.14435900000000   -1.55766100000000    2.06858600000000
C        -9.37356600000000   -0.49982700000000    2.96994100000000
C        -8.31093100000000   -0.49388300000000    3.82696700000000
C        -7.47163300000000   -1.54798600000000    3.41605400000000
N        -7.99145200000000   -2.18678400000000    2.35465000000000
C        -6.25491600000000   -1.71978500000000    4.10542800000000
C        -4.99863800000000   -1.86252200000000    3.48911200000000
C        -3.67442500000000   -2.15069800000000    3.98884600000000
C        -2.84815600000000   -2.16911700000000    2.95146300000000
C        -3.63240000000000   -1.89182000000000    1.77199800000000
N        -4.90557800000000   -1.71831200000000    2.16165400000000
C        -3.31634600000000   -1.78797900000000    0.40815000000000
C        -4.25464100000000   -1.82216300000000   -0.64237100000000
C        -4.03868600000000   -0.96992400000000   -1.73824100000000
C        -5.09697900000000   -1.14833900000000   -2.58176200000000
C        -5.92545100000000   -2.10837800000000   -1.96495400000000
N        -5.40086300000000   -2.50982400000000   -0.79481900000000
C        -7.13642900000000   -2.43001600000000   -2.60901800000000
C        -8.38564400000000   -2.48954400000000   -1.96687000000000
N        -8.49057500000000   -2.01636000000000   -0.71778900000000
H        -9.97836900000000   -3.42711400000000   -3.29552900000000
H       -11.56157600000000   -3.03024800000000   -1.28298800000000
H       -10.22195800000000    0.20653500000000    3.01746000000000
H        -8.18299800000000    0.20965300000000    4.66984300000000
H        -7.56982500000000   -3.07893600000000    1.84143600000000
H        -6.22402000000000   -1.72226000000000    5.19081500000000
H        -3.38697300000000   -2.32518500000000    5.01898300000000
H        -1.78173200000000   -2.36121100000000    2.98077500000000
H        -3.19601900000000   -0.27781400000000   -1.93117800000000
H        -5.22659700000000   -0.63053300000000   -3.54703300000000
H        -5.81359000000000   -3.28304600000000   -0.10670800000000
H        -7.17023600000000   -2.63219400000000   -3.67277500000000
C         3.45545300000000    3.03160400000000    0.32156400000000
C         2.64291500000000    2.04279800000000   -0.00356700000000
C         3.43692200000000    0.87166800000000   -0.30812400000000
C         3.19447100000000   -0.44000900000000   -0.70778800000000
C         4.12737100000000   -1.36434500000000   -1.20151200000000
C         3.98046000000000   -2.72575700000000   -0.83669200000000
C         5.00575100000000   -3.41546400000000   -1.40645900000000
C         5.75800700000000   -2.44417200000000   -2.10933300000000
N         5.21129500000000   -1.22661100000000   -1.97343400000000
C         6.91536700000000   -2.86176000000000   -2.79484100000000
C         8.16754300000000   -2.28068400000000   -2.76977400000000
C         9.44890400000000   -2.49975800000000   -3.39734200000000
C        10.28034300000000   -1.57884400000000   -2.93823000000000
C         9.57400600000000   -0.72834100000000   -2.00061900000000
N         8.29865100000000   -1.22575100000000   -1.95959600000000
C         9.87256100000000    0.37999800000000   -1.21597800000000
C         8.96452200000000    1.20015900000000   -0.52592100000000
C         9.34564500000000    1.70097000000000    0.74338000000000
C         8.30037100000000    2.43865800000000    1.21905600000000
C         7.30626900000000    2.36262400000000    0.21553600000000
N         7.72832200000000    1.61940600000000   -0.81697100000000
C         6.08402600000000    3.02467400000000    0.43788500000000
C         4.80210500000000    2.54672900000000    0.24117600000000
N         4.72990300000000    1.26042600000000   -0.13560000000000
H         3.19702900000000    4.04706300000000    0.60445200000000
H         1.55340200000000    2.07107100000000   -0.03871800000000
H         3.18622100000000   -3.17778300000000   -0.20747100000000
H         5.19109400000000   -4.50316500000000   -1.32975900000000
H         5.57732200000000   -0.27681300000000   -2.43855700000000
H         6.87498200000000   -3.78315600000000   -3.42590000000000
H         9.68302900000000   -3.28526600000000   -4.12411100000000
H        11.33777300000000   -1.44846700000000   -3.20420100000000
H        10.30317000000000    1.55211400000000    1.27870500000000
H         8.26494500000000    2.97699000000000    2.18155000000000
H         7.15875100000000    1.40715700000000   -1.75516000000000
H         6.08683600000000    4.06158800000000    0.84934000000000
158
 energy: -268.555303697179 gnorm: 0.246699199200 xtb: 6.4.1 (bd6e46d)
C       -18.49313717147685   -2.90816169119813    2.32108597126892
C       -17.30562174646707   -2.28108541405289    2.31559687342540
C       -17.45035636735620   -1.08012864325867    1.50806122649285
C       -16.55139904299744   -0.04557428411366    1.15338790826382
C       -16.94288753837653    1.25678789345226    0.73198841974033
C       -16.35896970102486    2.38914745984319    1.34294822629097
C       -16.93141675800568    3.48163165824126    0.76259334347529
C       -17.87195970305572    3.03887608888166   -0.20202396132216
N       -17.85881301743548    1.68003537901037   -0.18813031414160
C       -18.62084901353257    3.97913533095885   -0.93196919133690
C       -19.96458827287072    3.85873431957326   -1.28075377893281
C       -20.89981656557437    4.72068114105127   -2.00688584241309
C       -22.07168401817248    4.07218590915511   -2.03603323923930
C       -21.91670416921521    2.79709932966571   -1.33060487595333
N       -20.64116223938355    2.76217520483317   -0.91379582643777
C       -22.77440319231712    1.74606313123392   -1.03885287412081
C       -22.49959317489235    0.60271152917844   -0.24245541832143
C       -23.41403129832831    0.10358184891547    0.71930463145797
C       -22.85063450938364   -0.98277776314212    1.32260188494326
C       -21.58323067549781   -1.16482139949537    0.73305802965994
N       -21.39740000508904   -0.18757964088254   -0.19555165535410
C       -20.73225258579547   -2.21194065497966    1.14958748149112
C       -19.38614010377207   -2.09096022632134    1.51035979356888
N       -18.71578662793692   -1.02083628146533    1.08480441697486
H       -18.77540583617692   -3.82008863270614    2.82018207972873
H       -16.39299159137197   -2.58179323387638    2.81521496850111
H       -15.61518630883829    2.40475917339425    2.13480662836881
H       -16.68968510185029    4.49997106104084    1.04473100133606
H       -18.42865436680473    1.05701935943804   -0.83393625136582
H       -18.16083066587573    4.91280736614844   -1.23025547544175
H       -20.67841081960813    5.68161771014865   -2.44195581779036
H       -22.98601162969133    4.41087867209992   -2.49895146500278
H       -23.79060337275045    1.80068300613575   -1.41192699149228
H       -24.39084050237943    0.53764092303126    0.94431421313393
H       -23.29214587791209   -1.57152694116820    2.12277418142368
H       -20.53518764524204   -0.10987692001968   -0.82814030850573
H       -21.17283488901742   -3.21727438372599    1.25715987715811
C        17.88054963798213   -1.09503384599631   -3.44166778949651
C        16.81776672960817   -0.43534703988890   -2.94490959550150
C        17.23194065283596    0.21584477163827   -1.71189305615636
C        16.56191711411920    1.03827369031947   -0.78315867192850
C        17.20971930141578    1.88128526552722    0.15080595071695
C        16.72669679331637    3.20140089902287    0.33857704511296
C        17.53769065465901    3.79254640714110    1.26671224045185
C        18.51790953677266    2.83189739369812    1.63707478131289
N        18.30334765128760    1.68787127603088    0.93571096808009
C        19.51218653879973    3.18701860903600    2.56732279159314
C        20.87074754028331    2.87875750281348    2.47718643264072
C        22.08056305037264    3.40996662310508    3.08801041333284
C        23.13453521085168    2.73133466034448    2.60492738127254
C        22.58502868031037    1.77231504531686    1.65950540798615
N        21.23980540536657    1.90746005928891    1.62004592973159
C        23.20080160216130    0.81457269800884    0.87737242930582
C        22.54974989909038   -0.03614798640112   -0.04104234117148
C        22.91487664550476   -1.39878822987681   -0.10912757914183
C        22.10697829790381   -1.97746121219960   -1.05334615822583
C        21.26107781158034   -0.96278414379855   -1.54728946902606
N        21.53854593614125    0.20781183822229   -0.91606707145344
C        20.29152698753911   -1.27512430524860   -2.52554121766200
C        18.98053373231447   -0.83986011147016   -2.52381147828111
N        18.53224836409265   -0.05421573641641   -1.52127370163612
H        17.88638392741591   -1.68162132365832   -4.34490996248971
H        15.83008683128358   -0.38665150298027   -3.37945560236405
H        15.88357534587458    3.66580669786967   -0.16573666328148
H        17.45411035347590    4.81537028049815    1.62903274863972
H        18.85997810783458    0.78312142572916    1.03406294324820
H        19.21815553958365    3.79616784362921    3.42822628038910
H        22.11584200568572    4.22414923372479    3.80303546809658
H        24.16848973403894    2.88412993360173    2.86520696700273
H        24.27672839885290    0.68017569119618    1.02727130199698
H        23.67028908086563   -1.91206173129476    0.47811166611922
H        22.12173554839035   -3.02786884061668   -1.33308351777279
H        21.08756651628953    1.15295768813386   -1.11280395560450
H        20.57834591218539   -1.95809599906724   -3.32708715569889
C       -15.17998539257988   -0.41313405162490    1.27722827410676
C       -14.00520394439981   -0.76538389944836    1.29522006776874
C       -12.66982262370924   -1.13073344571045    1.25912674188243
C       -11.47997408564676   -1.41600145638448    1.18335332664636
C        -1.90558364884935   -1.58190532256317    0.13644764125886
C        -0.72248713949218   -1.36851703957676   -0.08204485697123
C         0.61309963847628   -1.08856564813140   -0.31977801490938
C         1.78673545116025   -0.80906582895438   -0.51003288316546
C        11.32449119644426    0.60373749945656   -1.12551959457918
C        12.53533930839374    0.75918479183911   -1.03656617007747
C        13.91042148933514    0.90579124715845   -0.93921011291803
C        15.12934785958964    1.00343573029935   -0.86804881355472
C        -9.68876150604605   -2.97642026263831   -2.36634540969345
C       -10.52405849018021   -2.77266377973172   -1.33239268016661
C        -9.73674149251576   -2.16819646938443   -0.27696860425504
C       -10.09788735206899   -1.74302225293843    1.01548262739638
C        -9.16841333772843   -1.54716696348695    2.05874447634055
C        -9.38355553085677   -0.50073695999959    2.98115647259144
C        -8.32004112965053   -0.50182363487212    3.84268200304568
C        -7.45917405466901   -1.54363910246996    3.43102471105084
N        -7.99088346340405   -2.16948022581401    2.34790717126376
C        -6.23493036859938   -1.73598807356692    4.10643916086449
C        -5.00276736266123   -1.87746306695367    3.47827336542955
C        -3.67451421501180   -2.14991794425236    4.00071736297507
C        -2.83767631873548   -2.16467888621512    2.95191343081722
C        -3.64011596720252   -1.90023349520672    1.77487980031600
N        -4.92102791598350   -1.73779404000695    2.14223459162837
C        -3.29111010921925   -1.79693535137853    0.42060170732393
C        -4.23199473829279   -1.81227054156527   -0.63578477303717
C        -4.02747584573995   -0.97293000108391   -1.74888222123029
C        -5.08793986573063   -1.15892572321507   -2.59460827462276
C        -5.93843112406109   -2.10566553336205   -1.98065411833573
N        -5.40246082274674   -2.49160480507170   -0.79192867060457
C        -7.15597523953046   -2.44692506201522   -2.60604632136559
C        -8.38221009600703   -2.50041945318007   -1.95328906604472
N        -8.47251147452013   -2.03307266176444   -0.69243588203383
H        -9.96959408920036   -3.42790346646626   -3.30182211546352
H       -11.56574456711819   -3.02881376916107   -1.27942886893569
H       -10.21496132820657    0.19609814889448    3.00953864132326
H        -8.17568178368535    0.19680193818682    4.66130428721082
H        -7.58819539389337   -3.02350001673352    1.85933775052731
H        -6.22242601010870   -1.70820335519456    5.18991896503667
H        -3.39488272250601   -2.32482497015036    5.02506484501206
H        -1.77920897468229   -2.35973840210557    2.97545375991632
H        -3.20294027866073   -0.28693318041323   -1.92065381248378
H        -5.23420272148960   -0.64135225687665   -3.53669432698666
H        -5.79583189262323   -3.23210143438268   -0.13650007613226
H        -7.17120107390853   -2.62165310085700   -3.67454089856471
C         3.45609381421340    3.04208824164482    0.32578999839649
C         2.62975934392313    2.03921879460463    0.00032031744784
C         3.45077345927243    0.88288528123334   -0.31481201429273
C         3.16332022477710   -0.42729382796261   -0.70826176861706
C         4.10390960917312   -1.36612358098775   -1.18839115107187
C         3.96619439278907   -2.73245716295693   -0.84052505080022
C         4.99661299786407   -3.41837727984425   -1.42091504853048
C         5.76901839270375   -2.45895094041572   -2.12011033212371
N         5.21589919393215   -1.22845405439431   -1.95813270377457
C         6.92714267229870   -2.86515782478116   -2.81637044751584
C         8.16488817131017   -2.25690908153703   -2.77036693753548
C         9.44923429465560   -2.50712130344061   -3.40319891775214
C        10.29460412670106   -1.57711677356016   -2.93692307776079
C         9.55815276775331   -0.73160524470122   -2.01205778795206
N         8.28541027421813   -1.19333300815781   -1.95560276580759
C         9.90309049825904    0.37543753145631   -1.23266822311566
C         8.99089594336506    1.19322145044300   -0.52230688138107
C         9.35798925522523    1.71015572155656    0.74366763113067
C         8.30717797794799    2.45261291412649    1.21167371673121
C         7.29538019496125    2.37824753444807    0.22482472839479
N         7.72785551749508    1.60709070002243   -0.80653387557993
C         6.06894669596627    3.04289924885880    0.43181553692588
C         4.80551924102692    2.53023718071175    0.22048959466673
N         4.74440620548794    1.23920603126358   -0.16464181861657
H         3.19773157541042    4.05005773088300    0.60522245201106
H         1.55155682153161    2.06793278221187   -0.03933054458328
H         3.19236400458446   -3.16586809159180   -0.21198108278146
H         5.19413480944019   -4.48429783799900   -1.33515379648850
H         5.56360157915592   -0.32429959247654   -2.40407781605842
H         6.87471085157861   -3.78820403897572   -3.40876393081901
H         9.67703502543932   -3.28459510277157   -4.12107844334036
H        11.33661176977365   -1.44685948502931   -3.20124293410027
H        10.29520709368970    1.54764022219212    1.26784746508211
H         8.25884894772437    2.97070924688162    2.16508099128029
H         7.18569063173302    1.40758473268648   -1.70205065527422
H         6.09297820253160    4.05209055542409    0.86194392833524
158
 energy: -268.639494669452 gnorm: 0.085048217095 xtb: 6.4.1 (bd6e46d)
C       -18.49700218396992   -2.90961281346798    2.29956890536767
C       -17.29774862537987   -2.28199444058473    2.30162381577720
C       -17.46202365430045   -1.07871907405979    1.48879735117736
C       -16.53250599904346   -0.07467602911036    1.15445290055738
C       -16.92226906125254    1.24424356757624    0.73543657425715
C       -16.34108437326456    2.38604814792634    1.32876829666816
C       -16.91359050409249    3.49041590316813    0.75317659986727
C       -17.86562586677198    3.05432605231852   -0.19881494156100
N       -17.86399280596013    1.67786856097611   -0.16827156471892
C       -18.63484632154523    3.97588722748492   -0.94535001809701
C       -19.97025618698270    3.82568429402786   -1.28772332438481
C       -20.89551791282694    4.71000848137042   -2.00557469834628
C       -22.07988037764905    4.06141931227663   -2.03991878737881
C       -21.89080592511550    2.78429649790033   -1.33751404403653
N       -20.61746020421942    2.71338188560245   -0.90933266932316
C       -22.77081228732635    1.75154617948522   -1.04726971969271
C       -22.50384553089398    0.61127268344006   -0.24658550443251
C       -23.42709397659054    0.10210773690997    0.70077641525140
C       -22.86073209480033   -0.99430792295222    1.30365210313341
C       -21.58079685210889   -1.18098023406892    0.73105669500161
N       -21.38224475735679   -0.17725335297401   -0.18151538366106
C       -20.72034338644048   -2.22744166071407    1.15433460687624
C       -19.38631382021398   -2.07925263812406    1.48364832057699
N       -18.72400743442221   -0.98486805173926    1.06261962625338
H       -18.77606537306196   -3.81207371257805    2.81298060945067
H       -16.39841246990343   -2.57631808240287    2.81012627443637
H       -15.61957761555536    2.39320051183727    2.12322065388920
H       -16.69923380855993    4.50144294996563    1.03265630263915
H       -18.40870737205267    1.08923380527452   -0.78122406704412
H       -18.16013576271250    4.91551069951443   -1.20685654574823
H       -20.67220461033232    5.67194198164464   -2.43258299140142
H       -22.98884172293641    4.40412054177726   -2.49408821382578
H       -23.79702329238018    1.82218922055362   -1.39159694160033
H       -24.37846766791261    0.53622407704920    0.93604421578404
H       -23.28234770498918   -1.56941723715342    2.10761629141012
H       -20.57716575336200   -0.10137626894249   -0.77622806098353
H       -21.18193422070228   -3.19807763140535    1.29851551053577
C        17.87955958876805   -1.08751444665566   -3.43902575165170
C        16.80543273474596   -0.44091943753767   -2.93439216979392
C        17.24612414455911    0.20041767292040   -1.70004549315366
C        16.53017339802011    1.01806815141565   -0.79446968365323
C        17.18313749623906    1.87881588601971    0.14357748010662
C        16.71261688968372    3.19556232490368    0.35294982688516
C        17.52509300265543    3.78597894721037    1.28450344580090
C        18.51676104791743    2.84167760799478    1.65291918619128
N        18.30391147158742    1.69951635697988    0.91824208189572
C        19.52736660256628    3.18429815199014    2.57892004199144
C        20.87080637150233    2.84836575433187    2.46928948843345
C        22.06683297041539    3.40730758463784    3.10475411314075
C        23.12469854005456    2.73354264354262    2.60264529066452
C        22.57327043420190    1.78505680705469    1.63989273923511
N        21.23335696650545    1.89966687891710    1.59178432575647
C        23.21033870181761    0.83115433112364    0.87699133632556
C        22.56774284571224   -0.03655591158257   -0.02976421335633
C        22.92991657989079   -1.39858343840838   -0.12336395157404
C        22.12274014776653   -1.97783920055781   -1.06706544183246
C        21.25709746077735   -0.97679983325005   -1.56090116830960
N        21.53028370070680    0.19237845679767   -0.89842245372682
C        20.28121977890087   -1.26684915519951   -2.54090512282627
C        18.98176342988586   -0.81385427768061   -2.52223068434468
N        18.54665923110725   -0.03392593243172   -1.50513999751720
H        17.90015848332066   -1.67654709742131   -4.33843696224504
H        15.82589930567386   -0.38547566295954   -3.36743680136711
H        15.88936925670959    3.65359025773171   -0.16203893091922
H        17.46060791756420    4.79993958582237    1.63190414494047
H        18.83677941003356    0.84233138587202    1.01010676139808
H        19.22469588979351    3.82571780231032    3.39984692392493
H        22.10240843031876    4.21826856134669    3.80573319709235
H        24.16099849397194    2.87877990255019    2.85415199305412
H        24.26825439547519    0.66596792977495    1.03805713023660
H        23.66683941462694   -1.89908391040373    0.47434019229504
H        22.11591284670897   -3.01520982206957   -1.33942322038828
H        21.10150486044804    1.08989376621145   -1.08469880056827
H        20.57120675485122   -1.97187778049610   -3.31098867799178
C       -15.16444146755934   -0.39676079340533    1.28899075465968
C       -13.99210134152522   -0.76351260381636    1.29468313703262
C       -12.67986335291461   -1.12383639826569    1.25717694998898
C       -11.48859400860586   -1.41196548936982    1.18523423350936
C        -1.89889618843753   -1.57746769116961    0.13171614402182
C        -0.70984498982350   -1.36152077423836   -0.08244061706462
C         0.60163974750724   -1.08906431380702   -0.31733836900572
C         1.78342190157156   -0.81795246622071   -0.50759561201985
C        11.32962624847634    0.60742122460477   -1.11625117626789
C        12.54778085602372    0.75818560498415   -1.03351789977293
C        13.89701633046391    0.90739325398783   -0.94298698904759
C        15.12194674750932    1.01426218473587   -0.87942319642667
C        -9.68988846954519   -2.97585236619730   -2.37206084081796
C       -10.53012256318416   -2.76630947033837   -1.33444026525470
C        -9.72823836391164   -2.18428437026204   -0.27394843772387
C       -10.12724390677193   -1.75262735373359    1.00868138101047
C        -9.19293924386844   -1.53170184776427    2.05240514913826
C        -9.39447453759099   -0.50274950581455    2.99677497769213
C        -8.33225730831603   -0.51111591327549    3.85949812460927
C        -7.45302593274840   -1.53699579659342    3.44596714669188
N        -7.99319695383950   -2.14372429186438    2.34030132351688
C        -6.21889595606822   -1.75338148264590    4.10419965063663
C        -5.00812005562536   -1.89975694948615    3.46299493384200
C        -3.67635873475791   -2.15073492575808    4.00612559196247
C        -2.83203522481664   -2.16041953197129    2.95191295220513
C        -3.64896679752431   -1.91534188033453    1.77497688928202
N        -4.93388306629352   -1.77192395363973    2.11970805444614
C        -3.26114148340829   -1.80624064305926    0.42809442524453
C        -4.20744990747340   -1.79943182580646   -0.63463956927562
C        -4.01512983388440   -0.97829835023254   -1.76383841172740
C        -5.07595088678758   -1.17070717492020   -2.60815212633788
C        -5.94528184875411   -2.10023625099064   -1.99698473303193
N        -5.40094622021950   -2.46518233875272   -0.79015265794795
C        -7.17186193308503   -2.46502152103075   -2.59962709981561
C        -8.37698325094217   -2.51859460215091   -1.93361236013762
N        -8.45594803929582   -2.06423068028012   -0.66076321205916
H        -9.95523292923907   -3.42498821084307   -3.30873140155630
H       -11.56943887465738   -3.02204101109244   -1.27511929810242
H       -10.21401749650125    0.18725897775830    3.00389186835380
H        -8.16827099654126    0.18333153393402    4.65960521042578
H        -7.60797576415986   -2.95551848307205    1.87481469983006
H        -6.22291229104637   -1.68964528241103    5.18649494503510
H        -3.40789097462615   -2.32175963342434    5.02974814056876
H        -1.77764642338999   -2.35375026308118    2.96807610510292
H        -3.20352048349976   -0.29523962065441   -1.91274551849344
H        -5.24220308837364   -0.65381444653408   -3.53255843276960
H        -5.77676343019127   -3.16832304890102   -0.16696100544347
H        -7.16996712875728   -2.60782360558080   -3.67418212129422
C         3.46259283205566    3.04481677783539    0.32534139208898
C         2.62479162473250    2.03417082658916    0.00220496509433
C         3.46676180416833    0.89186076673246   -0.32870109173164
C         3.12622042594213   -0.42082507141885   -0.70903143593629
C         4.07861329417578   -1.37339117458377   -1.17441521842031
C         3.95106298825139   -2.74146457457263   -0.84778696824033