      -----------------------------------------------------------      
     |                   =====================                   |     
     |                           x T B                           |     
     |                   =====================                   |     
     |                         S. Grimme                         |     
     |          Mulliken Center for Theoretical Chemistry        |     
     |                    University of Bonn                     |     
      -----------------------------------------------------------      

   * xtb version 6.4.1 (bd6e46d) compiled by 'conda@4901f00b25ba' on 2021-06-10

   xtb is free software: you can redistribute it and/or modify it under
   the terms of the GNU Lesser General Public License as published by
   the Free Software Foundation, either version 3 of the License, or
   (at your option) any later version.
   
   xtb is distributed in the hope that it will be useful,
   but WITHOUT ANY WARRANTY; without even the implied warranty of
   MERCHANTABILITY or FITNESS FOR A PARTICULAR PURPOSE.  See the
   GNU Lesser General Public License for more details.
   
   Cite this work as:
   * C. Bannwarth, E. Caldeweyher, S. Ehlert, A. Hansen, P. Pracht,
     J. Seibert, S. Spicher, S. Grimme, WIREs Comput. Mol. Sci., 2020, 11,
     e01493. DOI: 10.1002/wcms.1493
   
   for GFN2-xTB:
   * C. Bannwarth, S. Ehlert and S. Grimme., J. Chem. Theory Comput., 2019,
     15, 1652-1671. DOI: 10.1021/acs.jctc.8b01176
   for GFN1-xTB:
   * S. Grimme, C. Bannwarth, P. Shushkov, J. Chem. Theory Comput., 2017,
     13, 1989-2009. DOI: 10.1021/acs.jctc.7b00118
   for GFN0-xTB:
   * P. Pracht, E. Caldeweyher, S. Ehlert, S. Grimme, ChemRxiv, 2019, preprint.
     DOI: 10.26434/chemrxiv.8326202.v1
   for GFN-FF:
   * S. Spicher and S. Grimme, Angew. Chem. Int. Ed., 2020, 59, 15665-15673.
     DOI: 10.1002/anie.202004239
   
   for DFT-D4:
   * E. Caldeweyher, C. Bannwarth and S. Grimme, J. Chem. Phys., 2017,
     147, 034112. DOI: 10.1063/1.4993215
   * E. Caldeweyher, S. Ehlert, A. Hansen, H. Neugebauer, S. Spicher,
     C. Bannwarth and S. Grimme, J. Chem. Phys., 2019, 150, 154122.
     DOI: 10.1063/1.5090222
   * E. Caldeweyher, J.-M. Mewes, S. Ehlert and S. Grimme, Phys. Chem. Chem. Phys.
     2020, 22, 8499-8512. DOI: 10.1039/D0CP00502A
   
   for sTDA-xTB:
   * S. Grimme and C. Bannwarth, J. Chem. Phys., 2016, 145, 054103.
     DOI: 10.1063/1.4959605
   
   in the mass-spec context:
   * V. Asgeirsson, C. Bauer and S. Grimme, Chem. Sci., 2017, 8, 4879.
     DOI: 10.1039/c7sc00601b
   * J. Koopman and S. Grimme, ACS Omega 2019, 4, 12, 15120-15133.
     DOI: 10.1021/acsomega.9b02011
   
   for metadynamics refer to:
   * S. Grimme, J. Chem. Theory Comput., 2019, 155, 2847-2862
     DOI: 10.1021/acs.jctc.9b00143
   
   for SPH calculations refer to:
   * S. Spicher and S. Grimme, J. Chem. Theory Comput., 2021, 17, 1701-1714
     DOI: 10.1021/acs.jctc.0c01306
   
   with help from (in alphabetical order)
   P. Atkinson, C. Bannwarth, F. Bohle, G. Brandenburg, E. Caldeweyher
   M. Checinski, S. Dohm, S. Ehlert, S. Ehrlich, I. Gerasimov, J. Koopman
   C. Lavigne, S. Lehtola, F. März, M. Müller, F. Musil, H. Neugebauer
   J. Pisarek, C. Plett, P. Pracht, J. Seibert, P. Shushkov, S. Spicher
   M. Stahn, M. Steiner, T. Strunk, J. Stückrath, T. Rose, and J. Unsleber
   
 * started run on 2021/11/21 at 21:12:53.040     

           -------------------------------------------------
          |                Calculation Setup                |
           -------------------------------------------------

          program call               : /home/jeff/miniconda3/bin/xtb /home/jeff/chem/final-year-proejct/Co+2_6_5_outenergy/input_structure.xyz --gfn 2 --parallel 1 --etemp 300 --chrg 0 --uhf 0 -I det_control.in
          coordinate file            : /home/jeff/chem/final-year-proejct/Co+2_6_5_outenergy/input_structure.xyz
          omp threads                :                     1
          number of atoms            :                   201
          number of electrons        :                   693
          charge                     :                     0
          spin                       :                   0.5
          first test random number   :      0.24967197123697

   ID    Z sym.   atoms
    1   27 Co     1, 37, 97, 132, 167
    2    6 C      2-9, 11-15, 17-21, 23, 24, 38-45, 47-51, 53-57, 59, 60,
                  73-96, 98-105, 107-111, 113-117, 119, 120, 133-140,
                  142-146, 148-152, 154, 155, 168-175, 177-181, 183-187, 189,
                  190
    3    7 N      10, 16, 22, 25, 46, 52, 58, 61, 106, 112, 118, 121, 141,
                  147, 153, 156, 176, 182, 188, 191
    4    1 H      26-36, 62-72, 122-131, 157-166, 192-201

           -------------------------------------------------
          |                 G F N 2 - x T B                 |
           -------------------------------------------------

        Reference                      10.1021/acs.jctc.8b01176
      * Hamiltonian:
        H0-scaling (s, p, d)           1.850000    2.230000    2.230000
        zeta-weighting                 0.500000
      * Dispersion:
        s8                             2.700000
        a1                             0.520000
        a2                             5.000000
        s9                             5.000000
      * Repulsion:
        kExp                           1.500000    1.000000
        rExp                           1.000000
      * Coulomb:
        alpha                          2.000000
        third order                    shell-resolved
        anisotropic                    true
        a3                             3.000000
        a5                             4.000000
        cn-shift                       1.200000
        cn-exp                         4.000000
        max-rad                        5.000000


          ...................................................
          :                      SETUP                      :
          :.................................................:
          :  # basis functions                 678          :
          :  # atomic orbitals                 673          :
          :  # shells                          355          :
          :  # electrons                       693          :
          :  max. iterations                   250          :
          :  Hamiltonian                  GFN2-xTB          :
          :  restarted?                      false          :
          :  GBSA solvation                  false          :
          :  PC potential                    false          :
          :  electronic temp.          300.0000000     K    :
          :  accuracy                    1.0000000          :
          :  -> integral cutoff          0.2500000E+02      :
          :  -> integral neglect         0.1000000E-07      :
          :  -> SCF convergence          0.1000000E-05 Eh   :
          :  -> wf. convergence          0.1000000E-03 e    :
          :  Broyden damping             0.4000000          :
          ...................................................

 iter      E             dE          RMSdq      gap      omega  full diag
   1   -374.1297690 -0.374130E+03  0.799E+00    0.16       0.0  T
   2   -343.0263944  0.311034E+02  0.110E+01    0.04       1.0  T
   3   -360.4816372 -0.174552E+02  0.755E+00    0.00       1.0  T
   4   -351.9388995  0.854274E+01  0.625E+00    0.03       1.0  T
   5   -223.6328049  0.128306E+03  0.106E+01    0.12       1.0  T
   6   -357.0294208 -0.133397E+03  0.639E+00    0.05       1.0  T
   7   -372.6036632 -0.155742E+02  0.356E+00    0.05       1.0  T
   8   -359.9040865  0.126996E+02  0.519E+00    0.01       1.0  T
   9   -373.8655595 -0.139615E+02  0.324E+00    0.17       1.0  T
  10   -373.8749649 -0.940538E-02  0.305E+00    0.14       1.0  T
  11   -374.2012858 -0.326321E+00  0.292E+00    0.24       1.0  T
  12   -374.3091020 -0.107816E+00  0.287E+00    0.18       1.0  T
  13   -374.3250284 -0.159264E-01  0.282E+00    0.23       1.0  T
  14   -374.4161509 -0.911225E-01  0.267E+00    0.17       1.0  T
  15   -371.9698528  0.244630E+01  0.328E+00    0.00       1.0  T
  16   -372.0706259 -0.100773E+00  0.317E+00    0.00       1.0  T
  17   -372.0804412 -0.981530E-02  0.316E+00    0.00       1.0  T
  18   -372.6020264 -0.521585E+00  0.294E+00    0.00       1.0  T
  19   -371.9350688  0.666958E+00  0.345E+00    0.03       1.0  T
  20   -371.8581111  0.769577E-01  0.343E+00    0.02       1.0  T
  21   -371.8401430  0.179681E-01  0.342E+00    0.02       1.0  T
  22   -373.1703877 -0.133024E+01  0.269E+00    0.00       1.0  T
  23   -364.0680197  0.910237E+01  0.517E+00    0.24       1.0  T
  24   -373.8705912 -0.980257E+01  0.214E+00    0.01       1.0  T
  25   -373.8622238  0.836734E-02  0.214E+00    0.01       1.0  T
  26   -367.0494384  0.681279E+01  0.514E+00    0.04       1.0  T
  27   -370.4112074 -0.336177E+01  0.410E+00    0.03       1.0  T
  28   -365.1825440  0.522866E+01  0.559E+00    0.26       1.0  T
  29   -365.2060628 -0.235188E-01  0.558E+00    0.26       1.0  T
  30   -365.8192621 -0.613199E+00  0.543E+00    0.11       1.0  T
  31   -372.4840533 -0.666479E+01  0.325E+00    0.04       1.0  T
  32   -374.2644270 -0.178037E+01  0.242E+00    0.05       1.0  T
  33   -374.1927647  0.716623E-01  0.247E+00    0.04       1.0  T
  34   -370.7832038  0.340956E+01  0.347E+00    0.02       1.0  T
  35   -374.0485786 -0.326537E+01  0.254E+00    0.05       1.0  T
  36   -374.0059736  0.426049E-01  0.250E+00    0.03       1.0  T
  37   -374.1567215 -0.150748E+00  0.248E+00    0.05       1.0  T
  38   -372.0327360  0.212399E+01  0.339E+00    0.01       1.0  T
  39   -372.2641094 -0.231373E+00  0.325E+00    0.00       1.0  T
  40   -374.1925756 -0.192847E+01  0.247E+00    0.01       1.0  T
  41   -373.4292642  0.763311E+00  0.324E+00    0.05       1.0  T
  42   -374.1989389 -0.769675E+00  0.277E+00    0.01       1.0  T
  43   -373.5599071  0.639032E+00  0.311E+00    0.06       1.0  T
  44   -373.4206280  0.139279E+00  0.319E+00    0.06       1.0  T
  45   -373.5089874 -0.883594E-01  0.313E+00    0.06       1.0  T
  46   -373.4681619  0.408255E-01  0.315E+00    0.06       1.0  T
  47   -374.1146266 -0.646465E+00  0.286E+00    0.02       1.0  T
  48   -374.0080902  0.106536E+00  0.273E+00    0.01       1.0  T
  49   -373.9280942  0.799959E-01  0.302E+00    0.01       1.0  T
  50   -373.9678278 -0.397336E-01  0.293E+00    0.01       1.0  T
  51   -374.1369175 -0.169090E+00  0.272E+00    0.01       1.0  T
  52   -374.2551259 -0.118208E+00  0.238E+00    0.01       1.0  T
  53   -371.2076559  0.304747E+01  0.337E+00    0.01       1.0  T
  54   -371.1114402  0.962156E-01  0.341E+00    0.00       1.0  T
  55   -370.7468504  0.364590E+00  0.356E+00    0.00       1.0  T
  56   -367.4671810  0.327967E+01  0.440E+00    0.01       1.0  T
  57   -366.9338494  0.533332E+00  0.453E+00    0.02       1.0  T
  58   -364.9217794  0.201207E+01  0.515E+00    0.00       1.0  T
  59   -365.0078034 -0.860241E-01  0.513E+00    0.00       1.0  T
  60   -364.9850027  0.228008E-01  0.514E+00    0.00       1.0  T
  61   -365.2464675 -0.261465E+00  0.506E+00    0.00       1.0  T
  62   -367.4914389 -0.224497E+01  0.454E+00    0.02       1.0  T
  63   -371.6933107 -0.420187E+01  0.336E+00    0.02       1.0  T
  64   -369.6289517  0.206436E+01  0.422E+00    0.00       1.0  T
  65   -371.7086940 -0.207974E+01  0.347E+00    0.01       1.0  T
  66   -370.7178060  0.990888E+00  0.392E+00    0.02       1.0  T
  67   -372.1747823 -0.145698E+01  0.341E+00    0.00       1.0  T
  68   -373.1282542 -0.953472E+00  0.317E+00    0.00       1.0  T
  69   -371.3057994  0.182245E+01  0.382E+00    0.01       1.0  T
  70   -373.3874104 -0.208161E+01  0.330E+00    0.00       1.0  T
  71   -374.3759946 -0.988584E+00  0.273E+00    0.00       1.0  T
  72   -371.1209145  0.325508E+01  0.401E+00    0.00       1.0  T
  73   -372.9134436 -0.179253E+01  0.349E+00    0.02       1.0  T
  74   -373.4278702 -0.514427E+00  0.332E+00    0.01       1.0  T
  75   -372.4983547  0.929515E+00  0.363E+00    0.02       1.0  T
  76   -373.6786793 -0.118032E+01  0.321E+00    0.01       1.0  T
  77   -373.9657723 -0.287093E+00  0.307E+00    0.00       1.0  T
  78   -374.0255660 -0.597937E-01  0.305E+00    0.01       1.0  T
  79   -374.4546377 -0.429072E+00  0.280E+00    0.01       1.0  T
  80   -374.6987123 -0.244075E+00  0.271E+00    0.00       1.0  T
  81   -374.3558991  0.342813E+00  0.282E+00    0.01       1.0  T
  82   -374.3046887  0.512104E-01  0.284E+00    0.00       1.0  T
  83   -374.2101196  0.945691E-01  0.286E+00    0.01       1.0  T
  84   -374.5161198 -0.306000E+00  0.276E+00    0.00       1.0  T
  85   -374.6695769 -0.153457E+00  0.272E+00    0.01       1.0  T
  86   -374.7077504 -0.381735E-01  0.279E+00    0.02       1.0  T
  87   -374.8033153 -0.955649E-01  0.272E+00    0.02       1.0  T
  88   -374.8354429 -0.321276E-01  0.271E+00    0.01       1.0  T
  89   -374.8435087 -0.806578E-02  0.270E+00    0.01       1.0  T
  90   -374.8738464 -0.303377E-01  0.270E+00    0.01       1.0  T
  91   -374.7878429  0.860035E-01  0.270E+00    0.01       1.0  T
  92   -374.7862439  0.159901E-02  0.277E+00    0.02       1.0  T
  93   -374.7872807 -0.103685E-02  0.282E+00    0.02       1.0  T
  94   -374.7805296  0.675108E-02  0.278E+00    0.02       1.0  T
  95   -374.8688395 -0.883098E-01  0.278E+00    0.02       1.0  T
  96   -374.8826833 -0.138439E-01  0.275E+00    0.02       1.0  T
  97   -374.7891220  0.935613E-01  0.289E+00    0.00       1.0  T
  98   -374.8531156 -0.639935E-01  0.281E+00    0.02       1.0  T
  99   -374.7090922  0.144023E+00  0.281E+00    0.01       1.0  T
 100   -374.9422740 -0.233182E+00  0.256E+00    0.02       1.0  T
 101   -374.4341369  0.508137E+00  0.287E+00    0.00       1.0  T
 102   -374.6061779 -0.172041E+00  0.225E+00    0.00       1.0  T
 103   -372.6230770  0.198310E+01  0.344E+00    0.11       1.0  T
 104   -373.3358375 -0.712761E+00  0.264E+00    0.01       1.0  T
 105   -372.6939884  0.641849E+00  0.320E+00    0.07       1.0  T
 106   -374.1925683 -0.149858E+01  0.235E+00    0.01       1.0  T
 107   -374.6997496 -0.507181E+00  0.231E+00    0.01       1.0  T
 108   -374.7033076 -0.355808E-02  0.228E+00    0.03       1.0  T
 109   -374.8097686 -0.106461E+00  0.219E+00    0.02       1.0  T
 110   -374.9297649 -0.119996E+00  0.202E+00    0.02       1.0  T
 111   -374.8801131  0.496518E-01  0.181E+00    0.02       1.0  T
 112   -375.0462434 -0.166130E+00  0.175E+00    0.01       1.0  T
 113   -374.8334677  0.212776E+00  0.168E+00    0.02       1.0  T
 114   -375.0831172 -0.249649E+00  0.165E+00    0.02       1.0  T
 115   -374.9830406  0.100077E+00  0.150E+00    0.02       1.0  T
 116   -375.2543949 -0.271354E+00  0.141E+00    0.02       1.0  T
 117   -374.8664456  0.387949E+00  0.160E+00    0.02       1.0  T
 118   -374.8932801 -0.268345E-01  0.153E+00    0.01       1.0  T
 119   -374.8165912  0.766889E-01  0.152E+00    0.01       1.0  T
 120   -375.3345250 -0.517934E+00  0.115E+00    0.02       1.0  T
 121   -375.0189665  0.315558E+00  0.148E+00    0.01       1.0  T
 122   -375.1190930 -0.100127E+00  0.122E+00    0.01       1.0  T
 123   -374.5599474  0.559146E+00  0.189E+00    0.02       1.0  T
 124   -374.8201029 -0.260155E+00  0.167E+00    0.00       1.0  T
 125   -375.2132555 -0.393153E+00  0.128E+00    0.01       1.0  T
 126   -374.9926578  0.220598E+00  0.143E+00    0.00       1.0  T
 127   -375.3230878 -0.330430E+00  0.104E+00    0.01       1.0  T
 128   -375.4523890 -0.129301E+00  0.771E-01    0.00       1.0  T
 129   -375.4887751 -0.363861E-01  0.660E-01    0.00       1.0  T
 130   -375.5232157 -0.344406E-01  0.619E-01    0.00       1.0  T
 131   -375.5419385 -0.187229E-01  0.510E-01    0.00       1.0  T
 132   -375.5275710  0.143676E-01  0.519E-01    0.00       1.0  T
 133   -375.5554749 -0.279040E-01  0.451E-01    0.00       1.0  T
 134   -375.5429562  0.125187E-01  0.493E-01    0.01       1.0  T
 135   -375.5461178 -0.316161E-02  0.455E-01    0.00       1.0  T
 136   -375.5649291 -0.188113E-01  0.375E-01    0.01       1.0  T
 137   -375.4975691  0.673600E-01  0.554E-01    0.01       1.0  T
 138   -375.5587019 -0.611328E-01  0.381E-01    0.01       1.0  T
 139   -375.5355375  0.231644E-01  0.439E-01    0.00       1.0  T
 140   -375.5641902 -0.286527E-01  0.333E-01    0.00       1.0  T
 141   -375.5647696 -0.579425E-03  0.317E-01    0.00       1.0  T
 142   -375.5723731 -0.760346E-02  0.272E-01    0.00       1.0  T
 143   -375.5794218 -0.704870E-02  0.218E-01    0.00       1.0  T
 144   -375.5710945  0.832728E-02  0.255E-01    0.00       1.0  T
 145   -375.5810060 -0.991153E-02  0.183E-01    0.00       1.0  T
 146   -375.5795359  0.147015E-02  0.183E-01    0.00       1.0  T
 147   -375.5801319 -0.596052E-03  0.166E-01    0.00       1.0  T
 148   -375.5791412  0.990732E-03  0.161E-01    0.00       1.0  T
 149   -375.5780456  0.109560E-02  0.162E-01    0.00       1.0  T
 150   -375.5801347 -0.208908E-02  0.134E-01    0.00       1.0  T
 151   -375.5806962 -0.561504E-03  0.120E-01    0.00       1.0  T
 152   -375.5803112  0.384973E-03  0.123E-01    0.00       1.0  T
 153   -375.5820179 -0.170673E-02  0.959E-02    0.00       1.0  T
 154   -375.5821779 -0.159904E-03  0.891E-02    0.00       1.0  T
 155   -375.5817360  0.441822E-03  0.926E-02    0.00       1.0  T
 156   -375.5828047 -0.106864E-02  0.688E-02    0.00       1.0  T
 157   -375.5827574  0.472241E-04  0.685E-02    0.00       1.0  T
 158   -375.5833729 -0.615489E-03  0.513E-02    0.00       1.0  T
 159   -375.5835416 -0.168624E-03  0.442E-02    0.00       1.0  T
 160   -375.5826369  0.904647E-03  0.669E-02    0.00       1.0  T
 161   -375.5831376 -0.500666E-03  0.523E-02    0.00       1.0  T
 162   -375.5838420 -0.704422E-03  0.277E-02    0.00       1.0  T
 163   -375.5835358  0.306196E-03  0.393E-02    0.00       1.0  T
 164   -375.5837806 -0.244810E-03  0.284E-02    0.00       1.0  T
 165   -375.5838944 -0.113799E-03  0.210E-02    0.00       1.0  T
 166   -375.5840029 -0.108518E-03  0.119E-02    0.00       1.0  T
 167   -375.5839850  0.179518E-04  0.124E-02    0.00       1.0  T
 168   -375.5840049 -0.199526E-04  0.866E-03    0.00       1.0  T
 169   -375.5839605  0.444554E-04  0.146E-02    0.00       1.0  T
 170   -375.5839830 -0.225484E-04  0.108E-02    0.00       1.0  T
 171   -375.5839975 -0.144867E-04  0.782E-03    0.00       1.0  T
 172   -375.5839982 -0.642612E-06  0.770E-03    0.00       1.0  T
 173   -375.5839957  0.241280E-05  0.803E-03    0.00       1.0  T
 174   -375.5839862  0.956722E-05  0.920E-03    0.00       1.0  T
 175   -375.5839923 -0.611826E-05  0.792E-03    0.00       1.0  T
 176   -375.5839943 -0.197767E-05  0.777E-03    0.00       1.0  T
 177   -375.5839988 -0.456135E-05  0.671E-03    0.00       1.1  T
 178   -375.5840059 -0.709079E-05  0.471E-03    0.00       1.5  T
 179   -375.5840086 -0.272376E-05  0.363E-03    0.00       1.9  T
 180   -375.5840086  0.765035E-07  0.369E-03    0.00       1.9  T
 181   -375.5840092 -0.680872E-06  0.331E-03    0.00       2.1  T
 182   -375.5840096 -0.375226E-06  0.300E-03    0.00       2.4  T
 183   -375.5840098 -0.203832E-06  0.279E-03    0.00       2.5  T
 184   -375.5840100 -0.155159E-06  0.256E-03    0.00       2.8  T
 185   -375.5840110 -0.100091E-05  0.141E-03    0.00       5.0  T
 186   -375.5840109  0.114013E-06  0.147E-03    0.00       4.8  T
 187   -375.5840110 -0.931531E-07  0.125E-03    0.00       5.6  T
 188   -375.5840110 -0.440112E-07  0.102E-03    0.00       6.9  T
 189   -375.5840109  0.149785E-06  0.109E-03    0.00       6.5  T
 190   -375.5840111 -0.209544E-06  0.780E-04    0.00       9.0  T
 191   -375.5840111 -0.609651E-07  0.736E-04    0.00       9.6  T

   *** convergence criteria satisfied after 191 iterations ***

         #    Occupation            Energy/Eh            Energy/eV
      -------------------------------------------------------------
         1        2.0000           -0.6705825             -18.2475
       ...           ...                  ...                  ...
       341        1.8239           -0.3488927              -9.4939
       342        1.8235           -0.3488902              -9.4938
       343        1.8185           -0.3488612              -9.4930
       344        1.8183           -0.3488598              -9.4930
       345        1.4377           -0.3475521              -9.4574
       346        1.4361           -0.3475482              -9.4573
       347        1.4342           -0.3475438              -9.4571 (HOMO)
       348        1.4257           -0.3475238              -9.4566 (LUMO)
       349        1.4255           -0.3475234              -9.4566
       350                         -0.3146599              -8.5623
       351                         -0.3102586              -8.4426
       352                         -0.3045474              -8.2872
       ...                                ...                  ...
       673                          1.7177634              46.7427
      -------------------------------------------------------------
                  HL-Gap            0.0000201 Eh            0.0005 eV
             Fermi-level           -0.3466471 Eh           -9.4327 eV

 SCC (total)                   0 d,  0 h,  0 min, 23.870 sec
 SCC setup                      ...        0 min,  0.008 sec (  0.035%)
 Dispersion                     ...        0 min,  0.016 sec (  0.066%)
 classical contributions        ...        0 min,  0.002 sec (  0.007%)
 integral evaluation            ...        0 min,  0.130 sec (  0.543%)
 iterations                     ...        0 min, 23.376 sec ( 97.928%)
 molecular gradient             ...        0 min,  0.324 sec (  1.358%)
 printout                       ...        0 min,  0.015 sec (  0.063%)

         :::::::::::::::::::::::::::::::::::::::::::::::::::::
         ::                     SUMMARY                     ::
         :::::::::::::::::::::::::::::::::::::::::::::::::::::
         :: total energy            -368.644702868955 Eh    ::
         :: gradient norm              0.000857095541 Eh/a0 ::
         :: HOMO-LUMO gap              0.000546685518 eV    ::
         ::.................................................::
         :: SCC energy              -375.584011127169 Eh    ::
         :: -> isotropic ES            0.081030986190 Eh    ::
         :: -> anisotropic ES          0.040150834132 Eh    ::
         :: -> anisotropic XC          0.224811989892 Eh    ::
         :: -> dispersion             -0.320908825203 Eh    ::
         :: repulsion energy           6.944428256499 Eh    ::
         :: add. restraining           0.000000000000 Eh    ::
         :: total charge               0.000000000004 e     ::
         :::::::::::::::::::::::::::::::::::::::::::::::::::::

           -------------------------------------------------
          |                Property Printout                |
           -------------------------------------------------

    * Orbital Energies and Occupations

         #    Occupation            Energy/Eh            Energy/eV
      -------------------------------------------------------------
         1        2.0000           -0.6705825             -18.2475
       ...           ...                  ...                  ...
       335        1.8713           -0.3492163              -9.5027
       336        1.8637           -0.3491576              -9.5011
       337        1.8583           -0.3491181              -9.5000
       338        1.8551           -0.3490951              -9.4994
       339        1.8543           -0.3490895              -9.4992
       340        1.8240           -0.3488934              -9.4939
       341        1.8239           -0.3488927              -9.4939
       342        1.8235           -0.3488902              -9.4938
       343        1.8185           -0.3488612              -9.4930
       344        1.8183           -0.3488598              -9.4930
       345        1.4377           -0.3475521              -9.4574
       346        1.4361           -0.3475482              -9.4573
       347        1.4342           -0.3475438              -9.4571 (HOMO)
       348        1.4257           -0.3475238              -9.4566 (LUMO)
       349        1.4255           -0.3475234              -9.4566
       350                         -0.3146599              -8.5623
       351                         -0.3102586              -8.4426
       352                         -0.3045474              -8.2872
       353                         -0.2988603              -8.1324
       354                         -0.2979930              -8.1088
       355                         -0.2979660              -8.1081
       356                         -0.2979583              -8.1079
       357                         -0.2974228              -8.0933
       358                         -0.2974045              -8.0928
       ...                                ...                  ...
       673                          1.7177634              46.7427
      -------------------------------------------------------------
                  HL-Gap            0.0000201 Eh            0.0005 eV
             Fermi-level           -0.3466471 Eh           -9.4327 eV

     #   Z          covCN         q      C6AA      α(0)
     1  27 Co       3.054     0.104   140.870    24.317
     2   6 C        3.025    -0.053    29.287     8.877
     3   6 C        3.022    -0.051    29.252     8.872
     4   6 C        3.196     0.073    25.871     8.292
     5   6 C        2.956     0.017    27.630     8.622
     6   6 C        3.196     0.073    25.872     8.292
     7   6 C        3.022    -0.051    29.251     8.872
     8   6 C        3.025    -0.053    29.287     8.877
     9   6 C        3.181     0.072    25.981     8.320
    10   7 N        2.629    -0.131    23.861     7.255
    11   6 C        2.905    -0.050    29.239     8.866
    12   6 C        3.177     0.073    25.979     8.322
    13   6 C        3.021    -0.052    29.267     8.874
    14   6 C        3.022    -0.052    29.269     8.874
    15   6 C        3.177     0.073    25.973     8.322
    16   7 N        2.631    -0.130    23.823     7.249
    17   6 C        2.905    -0.052    29.283     8.873
    18   6 C        3.177     0.073    25.972     8.321
    19   6 C        3.022    -0.052    29.269     8.874
    20   6 C        3.021    -0.052    29.267     8.874
    21   6 C        3.177     0.073    25.979     8.322
    22   7 N        2.631    -0.130    23.822     7.249
    23   6 C        2.905    -0.050    29.239     8.866
    24   6 C        3.181     0.072    25.981     8.320
    25   7 N        2.629    -0.131    23.861     7.255
    26   1 H        0.926     0.034     2.525     2.485
    27   1 H        0.926     0.037     2.495     2.470
    28   1 H        0.926     0.037     2.494     2.470
    29   1 H        0.926     0.034     2.525     2.485
    30   1 H        0.926     0.050     2.320     2.382
    31   1 H        0.926     0.035     2.518     2.482
    32   1 H        0.926     0.035     2.520     2.482
    33   1 H        0.926     0.049     2.328     2.386
    34   1 H        0.926     0.035     2.520     2.482
    35   1 H        0.926     0.035     2.518     2.482
    36   1 H        0.926     0.050     2.320     2.382
    37  27 Co       3.054     0.104   140.872    24.317
    38   6 C        3.025    -0.053    29.287     8.877
    39   6 C        3.022    -0.051    29.251     8.872
    40   6 C        3.196     0.073    25.871     8.292
    41   6 C        2.957     0.017    27.630     8.622
    42   6 C        3.196     0.073    25.871     8.292
    43   6 C        3.022    -0.051    29.251     8.872
    44   6 C        3.025    -0.053    29.287     8.877
    45   6 C        3.181     0.072    25.980     8.320
    46   7 N        2.629    -0.131    23.860     7.255
    47   6 C        2.905    -0.050    29.239     8.866
    48   6 C        3.177     0.073    25.978     8.322
    49   6 C        3.021    -0.052    29.267     8.874
    50   6 C        3.022    -0.052    29.269     8.874
    51   6 C        3.177     0.073    25.972     8.322
    52   7 N        2.631    -0.130    23.823     7.249
    53   6 C        2.905    -0.052    29.283     8.873
    54   6 C        3.177     0.073    25.972     8.322
    55   6 C        3.022    -0.052    29.269     8.874
    56   6 C        3.021    -0.052    29.267     8.874
    57   6 C        3.177     0.073    25.978     8.322
    58   7 N        2.631    -0.130    23.823     7.249
    59   6 C        2.905    -0.050    29.239     8.866
    60   6 C        3.181     0.072    25.981     8.320
    61   7 N        2.629    -0.131    23.860     7.255
    62   1 H        0.926     0.034     2.525     2.485
    63   1 H        0.926     0.037     2.495     2.470
    64   1 H        0.926     0.037     2.494     2.470
    65   1 H        0.926     0.034     2.525     2.485
    66   1 H        0.926     0.050     2.320     2.382
    67   1 H        0.926     0.035     2.518     2.481
    68   1 H        0.926     0.035     2.520     2.482
    69   1 H        0.926     0.049     2.328     2.386
    70   1 H        0.926     0.035     2.520     2.482
    71   1 H        0.926     0.035     2.518     2.481
    72   1 H        0.926     0.050     2.320     2.382
    73   6 C        1.993    -0.020    31.571     9.074
    74   6 C        1.963    -0.010    31.343     9.041
    75   6 C        1.965    -0.002    31.128     9.010
    76   6 C        1.965    -0.002    31.134     9.011
    77   6 C        1.963    -0.010    31.336     9.040
    78   6 C        1.993    -0.020    31.577     9.075
    79   6 C        1.993    -0.020    31.570     9.074
    80   6 C        1.963    -0.010    31.337     9.040
    81   6 C        1.965    -0.002    31.128     9.010
    82   6 C        1.965    -0.002    31.129     9.010
    83   6 C        1.963    -0.010    31.336     9.040
    84   6 C        1.993    -0.020    31.571     9.074
    85   6 C        1.993    -0.020    31.571     9.074
    86   6 C        1.963    -0.010    31.337     9.040
    87   6 C        1.965    -0.002    31.129     9.010
    88   6 C        1.965    -0.002    31.128     9.010
    89   6 C        1.963    -0.010    31.338     9.040
    90   6 C        1.993    -0.020    31.570     9.074
    91   6 C        1.993    -0.020    31.575     9.075
    92   6 C        1.963    -0.010    31.336     9.040
    93   6 C        1.965    -0.002    31.134     9.011
    94   6 C        1.965    -0.002    31.128     9.010
    95   6 C        1.963    -0.010    31.343     9.041
    96   6 C        1.993    -0.020    31.570     9.074
    97  27 Co       3.049     0.103   140.886    24.318
    98   6 C        3.025    -0.053    29.285     8.877
    99   6 C        3.023    -0.052    29.253     8.872
   100   6 C        3.198     0.073    25.854     8.288
   101   6 C        2.957     0.017    27.628     8.621
   102   6 C        3.197     0.073    25.856     8.289
   103   6 C        3.023    -0.052    29.252     8.872
   104   6 C        3.025    -0.053    29.285     8.877
   105   6 C        3.183     0.072    25.975     8.318
   106   7 N        2.629    -0.132    23.873     7.257
   107   6 C        2.905    -0.048    29.187     8.859
   108   6 C        3.183     0.072    25.974     8.318
   109   6 C        3.025    -0.053    29.284     8.877
   110   6 C        3.023    -0.052    29.253     8.872
   111   6 C        3.197     0.073    25.853     8.288
   112   7 N        2.629    -0.132    23.876     7.257
   113   6 C        2.957     0.017    27.630     8.622
   114   6 C        3.198     0.073    25.851     8.287
   115   6 C        3.023    -0.052    29.254     8.872
   116   6 C        3.025    -0.053    29.284     8.877
   117   6 C        3.183     0.072    25.974     8.318
   118   7 N        2.629    -0.132    23.875     7.257
   119   6 C        2.905    -0.048    29.187     8.858
   120   6 C        3.183     0.072    25.975     8.318
   121   7 N        2.629    -0.132    23.872     7.256
   122   1 H        0.926     0.034     2.527     2.486
   123   1 H        0.926     0.036     2.498     2.472
   124   1 H        0.926     0.036     2.498     2.472
   125   1 H        0.926     0.034     2.527     2.486
   126   1 H        0.926     0.050     2.315     2.379
   127   1 H        0.926     0.034     2.527     2.486
   128   1 H        0.926     0.036     2.498     2.472
   129   1 H        0.926     0.036     2.498     2.472
   130   1 H        0.926     0.034     2.527     2.486
   131   1 H        0.926     0.050     2.315     2.379
   132  27 Co       3.048     0.103   140.887    24.318
   133   6 C        3.025    -0.053    29.285     8.877
   134   6 C        3.023    -0.052    29.253     8.872
   135   6 C        3.198     0.073    25.852     8.288
   136   6 C        2.957     0.017    27.629     8.621
   137   6 C        3.198     0.073    25.851     8.288
   138   6 C        3.023    -0.052    29.254     8.872
   139   6 C        3.025    -0.053    29.284     8.877
   140   6 C        3.183     0.072    25.974     8.318
   141   7 N        2.629    -0.132    23.873     7.257
   142   6 C        2.905    -0.048    29.186     8.858
   143   6 C        3.183     0.072    25.974     8.318
   144   6 C        3.025    -0.053    29.284     8.877
   145   6 C        3.023    -0.052    29.253     8.872
   146   6 C        3.198     0.073    25.852     8.288
   147   7 N        2.629    -0.132    23.873     7.257
   148   6 C        2.957     0.017    27.629     8.621
   149   6 C        3.198     0.073    25.852     8.288
   150   6 C        3.023    -0.052    29.254     8.872
   151   6 C        3.025    -0.053    29.284     8.877
   152   6 C        3.183     0.072    25.974     8.318
   153   7 N        2.629    -0.132    23.873     7.257
   154   6 C        2.905    -0.048    29.186     8.858
   155   6 C        3.183     0.072    25.974     8.318
   156   7 N        2.629    -0.132    23.874     7.257
   157   1 H        0.926     0.034     2.527     2.486
   158   1 H        0.926     0.036     2.498     2.472
   159   1 H        0.926     0.036     2.498     2.472
   160   1 H        0.926     0.034     2.527     2.486
   161   1 H        0.926     0.050     2.315     2.379
   162   1 H        0.926     0.034     2.527     2.486
   163   1 H        0.926     0.036     2.498     2.472
   164   1 H        0.926     0.036     2.498     2.472
   165   1 H        0.926     0.034     2.527     2.486
   166   1 H        0.926     0.050     2.315     2.379
   167  27 Co       3.049     0.103   140.886    24.318
   168   6 C        3.025    -0.053    29.284     8.877
   169   6 C        3.023    -0.052    29.254     8.872
   170   6 C        3.198     0.073    25.853     8.288
   171   6 C        2.957     0.017    27.630     8.622
   172   6 C        3.198     0.073    25.852     8.288
   173   6 C        3.023    -0.052    29.253     8.872
   174   6 C        3.025    -0.053    29.284     8.877
   175   6 C        3.183     0.072    25.974     8.318
   176   7 N        2.629    -0.132    23.874     7.257
   177   6 C        2.905    -0.048    29.187     8.859
   178   6 C        3.183     0.072    25.974     8.318
   179   6 C        3.025    -0.053    29.285     8.877
   180   6 C        3.023    -0.052    29.253     8.872
   181   6 C        3.198     0.073    25.854     8.288
   182   7 N        2.629    -0.132    23.873     7.257
   183   6 C        2.957     0.017    27.628     8.621
   184   6 C        3.197     0.073    25.855     8.288
   185   6 C        3.023    -0.051    29.252     8.872
   186   6 C        3.025    -0.053    29.285     8.877
   187   6 C        3.183     0.072    25.975     8.318
   188   7 N        2.629    -0.132    23.874     7.257
   189   6 C        2.905    -0.048    29.187     8.859
   190   6 C        3.183     0.072    25.975     8.318
   191   7 N        2.629    -0.132    23.874     7.257
   192   1 H        0.926     0.034     2.527     2.486
   193   1 H        0.926     0.036     2.498     2.472
   194   1 H        0.926     0.036     2.498     2.472
   195   1 H        0.926     0.034     2.527     2.486
   196   1 H        0.926     0.050     2.315     2.379
   197   1 H        0.926     0.034     2.527     2.486
   198   1 H        0.926     0.036     2.498     2.472
   199   1 H        0.926     0.036     2.498     2.472
   200   1 H        0.926     0.034     2.527     2.486
   201   1 H        0.926     0.050     2.315     2.379

 Mol. C6AA /au·bohr⁶  :     807512.651337
 Mol. C8AA /au·bohr⁸  :   23476692.881017
 Mol. α(0) /au        :       1474.018961


Wiberg/Mayer (AO) data.
largest (>0.10) Wiberg bond orders for each atom

 ---------------------------------------------------------------------------
     #   Z sym  total        # sym  WBO       # sym  WBO       # sym  WBO
 ---------------------------------------------------------------------------
     1  27 Co   3.325 --    22 N    0.724    16 N    0.724    10 N    0.722
                            25 N    0.722
     2   6 C    3.952 --     3 C    1.641    24 C    1.174    26 H    0.972
     3   6 C    3.956 --     2 C    1.641     4 C    1.183    27 H    0.970
     4   6 C    3.915 --    25 N    1.262     5 C    1.256     3 C    1.183
     5   6 C    3.947 --     6 C    1.256     4 C    1.256    73 C    1.181
     6   6 C    3.915 --    10 N    1.261     5 C    1.256     7 C    1.183
     7   6 C    3.956 --     8 C    1.641     6 C    1.183    28 H    0.970
     8   6 C    3.952 --     7 C    1.641     9 C    1.174    29 H    0.972
     9   6 C    3.929 --    11 C    1.359    10 N    1.227     8 C    1.174
    10   7 N    3.514 --     6 C    1.261     9 C    1.227     1 Co   0.722
    11   6 C    3.938 --     9 C    1.359    12 C    1.359    30 H    0.963
    12   6 C    3.934 --    11 C    1.359    16 N    1.239    13 C    1.166
    13   6 C    3.957 --    14 C    1.657    12 C    1.166    31 H    0.972
    14   6 C    3.954 --    13 C    1.657    15 C    1.165    32 H    0.972
    15   6 C    3.936 --    17 C    1.358    16 N    1.242    14 C    1.165
    16   7 N    3.510 --    15 C    1.242    12 C    1.239     1 Co   0.724
    17   6 C    3.934 --    15 C    1.358    18 C    1.358    33 H    0.964
    18   6 C    3.936 --    17 C    1.358    22 N    1.242    19 C    1.165
    19   6 C    3.954 --    20 C    1.657    18 C    1.165    34 H    0.972
    20   6 C    3.957 --    19 C    1.657    21 C    1.166    35 H    0.972
    21   6 C    3.934 --    23 C    1.359    22 N    1.239    20 C    1.166
    22   7 N    3.510 --    18 C    1.242    21 C    1.239     1 Co   0.724
    23   6 C    3.938 --    24 C    1.359    21 C    1.359    36 H    0.963
    24   6 C    3.929 --    23 C    1.359    25 N    1.227     2 C    1.174
    25   7 N    3.514 --     4 C    1.262    24 C    1.227     1 Co   0.722
    26   1 H    0.998 --     2 C    0.972
    27   1 H    0.998 --     3 C    0.970
    28   1 H    0.998 --     7 C    0.970
    29   1 H    0.998 --     8 C    0.972
    30   1 H    0.996 --    11 C    0.963
    31   1 H    0.998 --    13 C    0.972
    32   1 H    0.998 --    14 C    0.972
    33   1 H    0.996 --    17 C    0.964
    34   1 H    0.998 --    19 C    0.972
    35   1 H    0.998 --    20 C    0.972
    36   1 H    0.996 --    23 C    0.963
    37  27 Co   3.326 --    58 N    0.724    52 N    0.724    46 N    0.722
                            61 N    0.722
    38   6 C    3.952 --    39 C    1.642    60 C    1.174    62 H    0.972
    39   6 C    3.956 --    38 C    1.642    40 C    1.183    63 H    0.970
    40   6 C    3.915 --    61 N    1.261    41 C    1.256    39 C    1.183
    41   6 C    3.947 --    40 C    1.256    42 C    1.256    96 C    1.181
    42   6 C    3.915 --    46 N    1.261    41 C    1.256    43 C    1.183
    43   6 C    3.956 --    44 C    1.642    42 C    1.183    64 H    0.970
    44   6 C    3.952 --    43 C    1.642    45 C    1.174    65 H    0.972
    45   6 C    3.929 --    47 C    1.359    46 N    1.227    44 C    1.174
    46   7 N    3.514 --    42 C    1.261    45 C    1.227    37 Co   0.722
    47   6 C    3.938 --    45 C    1.359    48 C    1.359    66 H    0.963
    48   6 C    3.934 --    47 C    1.359    52 N    1.239    49 C    1.166
    49   6 C    3.957 --    50 C    1.657    48 C    1.166    67 H    0.972
    50   6 C    3.954 --    49 C    1.657    51 C    1.165    68 H    0.972
    51   6 C    3.936 --    53 C    1.358    52 N    1.242    50 C    1.165
    52   7 N    3.510 --    51 C    1.242    48 C    1.239    37 Co   0.724
    53   6 C    3.935 --    54 C    1.358    51 C    1.358    69 H    0.964
    54   6 C    3.936 --    53 C    1.358    58 N    1.242    55 C    1.165
    55   6 C    3.954 --    56 C    1.657    54 C    1.165    70 H    0.972
    56   6 C    3.957 --    55 C    1.657    57 C    1.166    71 H    0.972
    57   6 C    3.934 --    59 C    1.359    58 N    1.239    56 C    1.166
    58   7 N    3.510 --    54 C    1.242    57 C    1.239    37 Co   0.724
    59   6 C    3.938 --    60 C    1.359    57 C    1.359    72 H    0.963
    60   6 C    3.929 --    59 C    1.359    61 N    1.227    38 C    1.174
    61   7 N    3.514 --    40 C    1.261    60 C    1.227    37 Co   0.722
    62   1 H    0.998 --    38 C    0.972
    63   1 H    0.998 --    39 C    0.970
    64   1 H    0.998 --    43 C    0.970
    65   1 H    0.998 --    44 C    0.972
    66   1 H    0.996 --    47 C    0.963
    67   1 H    0.998 --    49 C    0.972
    68   1 H    0.998 --    50 C    0.972
    69   1 H    0.996 --    53 C    0.964
    70   1 H    0.998 --    55 C    0.972
    71   1 H    0.998 --    56 C    0.972
    72   1 H    0.996 --    59 C    0.963
    73   6 C    3.884 --    74 C    2.449     5 C    1.181    76 C    0.194
    74   6 C    3.931 --    73 C    2.449    75 C    1.329
    75   6 C    3.920 --    76 C    2.362    74 C    1.329    78 C    0.193
    76   6 C    3.922 --    75 C    2.362    77 C    1.330    73 C    0.194
    77   6 C    3.928 --    78 C    2.446    76 C    1.330
    78   6 C    3.884 --    77 C    2.446   101 C    1.184    75 C    0.193
    79   6 C    3.883 --    80 C    2.444   113 C    1.185    82 C    0.193
    80   6 C    3.928 --    79 C    2.444    81 C    1.331
    81   6 C    3.920 --    82 C    2.359    80 C    1.331    84 C    0.193
    82   6 C    3.920 --    81 C    2.359    83 C    1.331    79 C    0.193
    83   6 C    3.928 --    84 C    2.444    82 C    1.331
    84   6 C    3.883 --    83 C    2.444   136 C    1.185    81 C    0.193
    85   6 C    3.883 --    86 C    2.444   148 C    1.185    88 C    0.193
    86   6 C    3.928 --    85 C    2.444    87 C    1.331
    87   6 C    3.920 --    88 C    2.359    86 C    1.331    90 C    0.193
    88   6 C    3.920 --    87 C    2.359    89 C    1.331    85 C    0.193
    89   6 C    3.928 --    90 C    2.444    88 C    1.331
    90   6 C    3.883 --    89 C    2.444   171 C    1.185    87 C    0.193
    91   6 C    3.884 --    92 C    2.447   183 C    1.184    94 C    0.193
    92   6 C    3.928 --    91 C    2.447    93 C    1.329
    93   6 C    3.921 --    94 C    2.362    92 C    1.329    96 C    0.194
    94   6 C    3.920 --    93 C    2.362    95 C    1.329    91 C    0.193
    95   6 C    3.931 --    96 C    2.449    94 C    1.329
    96   6 C    3.884 --    95 C    2.449    41 C    1.181    93 C    0.194
    97  27 Co   3.303 --   106 N    0.719   121 N    0.719   112 N    0.718
                           118 N    0.718
    98   6 C    3.953 --    99 C    1.641   120 C    1.175   122 H    0.972
    99   6 C    3.955 --    98 C    1.641   100 C    1.184   123 H    0.970
   100   6 C    3.915 --   121 N    1.264   101 C    1.254    99 C    1.184
   101   6 C    3.937 --   102 C    1.254   100 C    1.254    78 C    1.184
   102   6 C    3.915 --   106 N    1.264   101 C    1.254   103 C    1.184
   103   6 C    3.955 --   104 C    1.641   102 C    1.184   124 H    0.970
   104   6 C    3.953 --   103 C    1.641   105 C    1.175   125 H    0.972
   105   6 C    3.928 --   107 C    1.359   106 N    1.226   104 C    1.175
   106   7 N    3.505 --   102 C    1.264   105 C    1.226    97 Co   0.719
   107   6 C    3.932 --   108 C    1.359   105 C    1.359   126 H    0.963
   108   6 C    3.928 --   107 C    1.359   112 N    1.226   109 C    1.175
   109   6 C    3.953 --   110 C    1.641   108 C    1.175   127 H    0.972
   110   6 C    3.955 --   109 C    1.641   111 C    1.184   128 H    0.970
   111   6 C    3.915 --   112 N    1.265   113 C    1.253   110 C    1.184
   112   7 N    3.505 --   111 C    1.265   108 C    1.226    97 Co   0.718
   113   6 C    3.937 --   111 C    1.253   114 C    1.253    79 C    1.185
   114   6 C    3.915 --   118 N    1.265   113 C    1.253   115 C    1.184
   115   6 C    3.955 --   116 C    1.641   114 C    1.184   129 H    0.970
   116   6 C    3.953 --   115 C    1.641   117 C    1.175   130 H    0.972
   117   6 C    3.928 --   119 C    1.359   118 N    1.226   116 C    1.175
   118   7 N    3.505 --   114 C    1.265   117 C    1.226    97 Co   0.718
   119   6 C    3.932 --   117 C    1.359   120 C    1.359   131 H    0.963
   120   6 C    3.928 --   119 C    1.359   121 N    1.226    98 C    1.175
   121   7 N    3.505 --   100 C    1.264   120 C    1.226    97 Co   0.719
   122   1 H    0.998 --    98 C    0.972
   123   1 H    0.998 --    99 C    0.970
   124   1 H    0.998 --   103 C    0.970
   125   1 H    0.998 --   104 C    0.972
   126   1 H    0.996 --   107 C    0.963
   127   1 H    0.998 --   109 C    0.972
   128   1 H    0.998 --   110 C    0.970
   129   1 H    0.998 --   115 C    0.970
   130   1 H    0.998 --   116 C    0.972
   131   1 H    0.996 --   119 C    0.963
   132  27 Co   3.302 --   141 N    0.718   153 N    0.718   147 N    0.718
                           156 N    0.718
   133   6 C    3.953 --   134 C    1.641   155 C    1.175   157 H    0.972
   134   6 C    3.955 --   133 C    1.641   135 C    1.184   158 H    0.970
   135   6 C    3.915 --   156 N    1.265   136 C    1.253   134 C    1.184
   136   6 C    3.937 --   135 C    1.253   137 C    1.253    84 C    1.185
   137   6 C    3.915 --   141 N    1.265   136 C    1.253   138 C    1.184
   138   6 C    3.955 --   139 C    1.640   137 C    1.184   159 H    0.970
   139   6 C    3.953 --   138 C    1.640   140 C    1.175   160 H    0.972
   140   6 C    3.928 --   142 C    1.359   141 N    1.226   139 C    1.175
   141   7 N    3.505 --   137 C    1.265   140 C    1.226   132 Co   0.718
   142   6 C    3.932 --   140 C    1.359   143 C    1.359   161 H    0.963
   143   6 C    3.928 --   142 C    1.359   147 N    1.226   144 C    1.175
   144   6 C    3.953 --   145 C    1.641   143 C    1.175   162 H    0.972
   145   6 C    3.955 --   144 C    1.641   146 C    1.184   163 H    0.970
   146   6 C    3.915 --   147 N    1.265   148 C    1.253   145 C    1.184
   147   7 N    3.505 --   146 C    1.265   143 C    1.226   132 Co   0.718
   148   6 C    3.937 --   146 C    1.253   149 C    1.253    85 C    1.185
   149   6 C    3.915 --   153 N    1.265   148 C    1.253   150 C    1.184
   150   6 C    3.955 --   151 C    1.640   149 C    1.184   164 H    0.970
   151   6 C    3.953 --   150 C    1.640   152 C    1.175   165 H    0.972
   152   6 C    3.928 --   154 C    1.359   153 N    1.226   151 C    1.175
   153   7 N    3.505 --   149 C    1.265   152 C    1.226   132 Co   0.718
   154   6 C    3.932 --   152 C    1.359   155 C    1.359   166 H    0.963
   155   6 C    3.928 --   154 C    1.359   156 N    1.226   133 C    1.175
   156   7 N    3.505 --   135 C    1.265   155 C    1.226   132 Co   0.718
   157   1 H    0.998 --   133 C    0.972
   158   1 H    0.998 --   134 C    0.970
   159   1 H    0.998 --   138 C    0.970
   160   1 H    0.998 --   139 C    0.972
   161   1 H    0.996 --   142 C    0.963
   162   1 H    0.998 --   144 C    0.972
   163   1 H    0.998 --   145 C    0.970
   164   1 H    0.998 --   150 C    0.970
   165   1 H    0.998 --   151 C    0.972
   166   1 H    0.996 --   154 C    0.963
   167  27 Co   3.303 --   188 N    0.718   182 N    0.718   176 N    0.718
                           191 N    0.718
   168   6 C    3.953 --   169 C    1.641   190 C    1.175   192 H    0.972
   169   6 C    3.955 --   168 C    1.641   170 C    1.184   193 H    0.970
   170   6 C    3.915 --   191 N    1.265   171 C    1.253   169 C    1.184
   171   6 C    3.937 --   172 C    1.253   170 C    1.253    90 C    1.185
   172   6 C    3.915 --   176 N    1.264   171 C    1.253   173 C    1.184
   173   6 C    3.955 --   174 C    1.641   172 C    1.184   194 H    0.970
   174   6 C    3.953 --   173 C    1.641   175 C    1.175   195 H    0.972
   175   6 C    3.928 --   177 C    1.359   176 N    1.226   174 C    1.175
   176   7 N    3.505 --   172 C    1.264   175 C    1.226   167 Co   0.718
   177   6 C    3.932 --   175 C    1.359   178 C    1.359   196 H    0.963
   178   6 C    3.928 --   177 C    1.359   182 N    1.226   179 C    1.175
   179   6 C    3.953 --   180 C    1.641   178 C    1.175   197 H    0.972
   180   6 C    3.955 --   179 C    1.641   181 C    1.184   198 H    0.970
   181   6 C    3.915 --   182 N    1.264   183 C    1.254   180 C    1.184
   182   7 N    3.505 --   181 C    1.264   178 C    1.226   167 Co   0.718
   183   6 C    3.937 --   184 C    1.254   181 C    1.254    91 C    1.184
   184   6 C    3.915 --   188 N    1.264   183 C    1.254   185 C    1.184
   185   6 C    3.955 --   186 C    1.641   184 C    1.184   199 H    0.970
   186   6 C    3.953 --   185 C    1.641   187 C    1.175   200 H    0.972
   187   6 C    3.928 --   189 C    1.359   188 N    1.226   186 C    1.175
   188   7 N    3.505 --   184 C    1.264   187 C    1.226   167 Co   0.718
   189   6 C    3.932 --   190 C    1.359   187 C    1.359   201 H    0.963
   190   6 C    3.928 --   189 C    1.359   191 N    1.226   168 C    1.175
   191   7 N    3.505 --   170 C    1.265   190 C    1.226   167 Co   0.718
   192   1 H    0.998 --   168 C    0.972
   193   1 H    0.998 --   169 C    0.970
   194   1 H    0.998 --   173 C    0.970
   195   1 H    0.998 --   174 C    0.972
   196   1 H    0.996 --   177 C    0.963
   197   1 H    0.998 --   179 C    0.972
   198   1 H    0.998 --   180 C    0.970
   199   1 H    0.998 --   185 C    0.970
   200   1 H    0.998 --   186 C    0.972
   201   1 H    0.996 --   189 C    0.963
 ---------------------------------------------------------------------------

Topologies differ in total number of bonds
Writing topology from bond orders to xtbtopo.mol

molecular dipole:
                 x           y           z       tot (Debye)
 q only:        0.009      -0.002       0.003
   full:        0.009      -0.002       0.004       0.026
molecular quadrupole (traceless):
                xx          xy          yy          xz          yz          zz
 q only:      123.273       0.285     -29.391       0.591      -2.228     -93.882
  q+dip:      202.245       0.409     -22.328       0.812      -5.441    -179.918
   full:      155.839       0.366     -30.277       0.835      -3.323    -125.562


           -------------------------------------------------
          | TOTAL ENERGY             -368.644702868955 Eh   |
          | GRADIENT NORM               0.000857095541 Eh/α |
          | HOMO-LUMO GAP               0.000546685518 eV   |
           -------------------------------------------------

------------------------------------------------------------------------
 * finished run on 2021/11/21 at 21:13:17.019     
------------------------------------------------------------------------
 total:
 * wall-time:     0 d,  0 h,  0 min, 23.979 sec
 *  cpu-time:     0 d,  0 h,  0 min, 23.979 sec
 * ratio c/w:     1.000 speedup
 SCF:
 * wall-time:     0 d,  0 h,  0 min, 23.873 sec
 *  cpu-time:     0 d,  0 h,  0 min, 23.873 sec
 * ratio c/w:     1.000 speedup

