      -----------------------------------------------------------      
     |                   =====================                   |     
     |                           x T B                           |     
     |                   =====================                   |     
     |                         S. Grimme                         |     
     |          Mulliken Center for Theoretical Chemistry        |     
     |                    University of Bonn                     |     
      -----------------------------------------------------------      

   * xtb version 6.4.1 (bd6e46d) compiled by 'conda@4901f00b25ba' on 2021-06-10

   xtb is free software: you can redistribute it and/or modify it under
   the terms of the GNU Lesser General Public License as published by
   the Free Software Foundation, either version 3 of the License, or
   (at your option) any later version.
   
   xtb is distributed in the hope that it will be useful,
   but WITHOUT ANY WARRANTY; without even the implied warranty of
   MERCHANTABILITY or FITNESS FOR A PARTICULAR PURPOSE.  See the
   GNU Lesser General Public License for more details.
   
   Cite this work as:
   * C. Bannwarth, E. Caldeweyher, S. Ehlert, A. Hansen, P. Pracht,
     J. Seibert, S. Spicher, S. Grimme, WIREs Comput. Mol. Sci., 2020, 11,
     e01493. DOI: 10.1002/wcms.1493
   
   for GFN2-xTB:
   * C. Bannwarth, S. Ehlert and S. Grimme., J. Chem. Theory Comput., 2019,
     15, 1652-1671. DOI: 10.1021/acs.jctc.8b01176
   for GFN1-xTB:
   * S. Grimme, C. Bannwarth, P. Shushkov, J. Chem. Theory Comput., 2017,
     13, 1989-2009. DOI: 10.1021/acs.jctc.7b00118
   for GFN0-xTB:
   * P. Pracht, E. Caldeweyher, S. Ehlert, S. Grimme, ChemRxiv, 2019, preprint.
     DOI: 10.26434/chemrxiv.8326202.v1
   for GFN-FF:
   * S. Spicher and S. Grimme, Angew. Chem. Int. Ed., 2020, 59, 15665-15673.
     DOI: 10.1002/anie.202004239
   
   for DFT-D4:
   * E. Caldeweyher, C. Bannwarth and S. Grimme, J. Chem. Phys., 2017,
     147, 034112. DOI: 10.1063/1.4993215
   * E. Caldeweyher, S. Ehlert, A. Hansen, H. Neugebauer, S. Spicher,
     C. Bannwarth and S. Grimme, J. Chem. Phys., 2019, 150, 154122.
     DOI: 10.1063/1.5090222
   * E. Caldeweyher, J.-M. Mewes, S. Ehlert and S. Grimme, Phys. Chem. Chem. Phys.
     2020, 22, 8499-8512. DOI: 10.1039/D0CP00502A
   
   for sTDA-xTB:
   * S. Grimme and C. Bannwarth, J. Chem. Phys., 2016, 145, 054103.
     DOI: 10.1063/1.4959605
   
   in the mass-spec context:
   * V. Asgeirsson, C. Bauer and S. Grimme, Chem. Sci., 2017, 8, 4879.
     DOI: 10.1039/c7sc00601b
   * J. Koopman and S. Grimme, ACS Omega 2019, 4, 12, 15120-15133.
     DOI: 10.1021/acsomega.9b02011
   
   for metadynamics refer to:
   * S. Grimme, J. Chem. Theory Comput., 2019, 155, 2847-2862
     DOI: 10.1021/acs.jctc.9b00143
   
   for SPH calculations refer to:
   * S. Spicher and S. Grimme, J. Chem. Theory Comput., 2021, 17, 1701-1714
     DOI: 10.1021/acs.jctc.0c01306
   
   with help from (in alphabetical order)
   P. Atkinson, C. Bannwarth, F. Bohle, G. Brandenburg, E. Caldeweyher
   M. Checinski, S. Dohm, S. Ehlert, S. Ehrlich, I. Gerasimov, J. Koopman
   C. Lavigne, S. Lehtola, F. März, M. Müller, F. Musil, H. Neugebauer
   J. Pisarek, C. Plett, P. Pracht, J. Seibert, P. Shushkov, S. Spicher
   M. Stahn, M. Steiner, T. Strunk, J. Stückrath, T. Rose, and J. Unsleber
   
 * started run on 2021/11/21 at 19:08:26.598     

           -------------------------------------------------
          |                Calculation Setup                |
           -------------------------------------------------

          program call               : /home/jeff/miniconda3/bin/xtb /home/jeff/chem/final-year-proejct/Ni+2_2_2_outenergy/input_structure.xyz --gfn 2 --parallel 1 --etemp 300 --chrg 0 --uhf 0 -I det_control.in
          coordinate file            : /home/jeff/chem/final-year-proejct/Ni+2_2_2_outenergy/input_structure.xyz
          omp threads                :                     1
          number of atoms            :                    74
          number of electrons        :                   250
          charge                     :                     0
          spin                       :                   0.0
          first test random number   :      0.73916026932789

   ID    Z sym.   atoms
    1   28 Ni     1, 39
    2    6 C      2-9, 11-15, 17-21, 23, 24, 37, 38, 40-47, 49-53, 55-59, 61,
                  62
    3    7 N      10, 16, 22, 25, 48, 54, 60, 63
    4    1 H      26-36, 64-74

           -------------------------------------------------
          |                 G F N 2 - x T B                 |
           -------------------------------------------------

        Reference                      10.1021/acs.jctc.8b01176
      * Hamiltonian:
        H0-scaling (s, p, d)           1.850000    2.230000    2.230000
        zeta-weighting                 0.500000
      * Dispersion:
        s8                             2.700000
        a1                             0.520000
        a2                             5.000000
        s9                             5.000000
      * Repulsion:
        kExp                           1.500000    1.000000
        rExp                           1.000000
      * Coulomb:
        alpha                          2.000000
        third order                    shell-resolved
        anisotropic                    true
        a3                             3.000000
        a5                             4.000000
        cn-shift                       1.200000
        cn-exp                         4.000000
        max-rad                        5.000000


          ...................................................
          :                      SETUP                      :
          :.................................................:
          :  # basis functions                 242          :
          :  # atomic orbitals                 240          :
          :  # shells                          128          :
          :  # electrons                       250          :
          :  max. iterations                   250          :
          :  Hamiltonian                  GFN2-xTB          :
          :  restarted?                      false          :
          :  GBSA solvation                  false          :
          :  PC potential                    false          :
          :  electronic temp.          300.0000000     K    :
          :  accuracy                    1.0000000          :
          :  -> integral cutoff          0.2500000E+02      :
          :  -> integral neglect         0.1000000E-07      :
          :  -> SCF convergence          0.1000000E-05 Eh   :
          :  -> wf. convergence          0.1000000E-03 e    :
          :  Broyden damping             0.4000000          :
          ...................................................

 iter      E             dE          RMSdq      gap      omega  full diag
   1   -136.3553186 -0.136355E+03  0.731E+00    0.93       0.0  T
   2   -136.5316948 -0.176376E+00  0.388E+00    1.31       1.0  T
   3   -136.5134764  0.182184E-01  0.119E+00    1.08       1.0  T
   4   -136.4963047  0.171717E-01  0.681E-01    1.34       1.0  T
   5   -136.5316715 -0.353667E-01  0.345E-01    1.32       1.0  T
   6   -136.5418712 -0.101998E-01  0.179E-01    1.33       1.0  T
   7   -136.5418052  0.660206E-04  0.811E-02    1.34       1.0  T
   8   -136.5422822 -0.476965E-03  0.218E-02    1.33       1.0  T
   9   -136.5423106 -0.284631E-04  0.957E-03    1.33       1.2  T
  10   -136.5423137 -0.305129E-05  0.352E-03    1.33       3.3  T
  11   -136.5423139 -0.196634E-06  0.214E-03    1.33       5.4  T
  12   -136.5423139  0.323706E-07  0.143E-03    1.33       8.1  T
  13   -136.5423140 -0.107235E-06  0.715E-04    1.33      16.3  T
  14   -136.5423140 -0.931965E-08  0.530E-04    1.33      21.9  T

   *** convergence criteria satisfied after 14 iterations ***

         #    Occupation            Energy/Eh            Energy/eV
      -------------------------------------------------------------
         1        2.0000           -0.6748152             -18.3627
       ...           ...                  ...                  ...
       119        2.0000           -0.3660789              -9.9615
       120        2.0000           -0.3660661              -9.9612
       121        2.0000           -0.3660256              -9.9601
       122        2.0000           -0.3660135              -9.9597
       123        2.0000           -0.3601760              -9.8009
       124        2.0000           -0.3601017              -9.7989
       125        2.0000           -0.3579999              -9.7417 (HOMO)
       126                         -0.3090456              -8.4096 (LUMO)
       127                         -0.2983496              -8.1185
       128                         -0.2983482              -8.1185
       129                         -0.2968096              -8.0766
       130                         -0.2957467              -8.0477
       ...                                ...                  ...
       240                          1.4104929              38.3815
      -------------------------------------------------------------
                  HL-Gap            0.0489543 Eh            1.3321 eV
             Fermi-level           -0.3334321 Eh           -9.0731 eV

 SCC (total)                   0 d,  0 h,  0 min,  0.269 sec
 SCC setup                      ...        0 min,  0.001 sec (  0.392%)
 Dispersion                     ...        0 min,  0.002 sec (  0.779%)
 classical contributions        ...        0 min,  0.000 sec (  0.149%)
 integral evaluation            ...        0 min,  0.025 sec (  9.269%)
 iterations                     ...        0 min,  0.158 sec ( 58.689%)
 molecular gradient             ...        0 min,  0.081 sec ( 30.251%)
 printout                       ...        0 min,  0.001 sec (  0.464%)

         :::::::::::::::::::::::::::::::::::::::::::::::::::::
         ::                     SUMMARY                     ::
         :::::::::::::::::::::::::::::::::::::::::::::::::::::
         :: total energy            -134.306189611017 Eh    ::
         :: gradient norm              0.000189717679 Eh/a0 ::
         :: HOMO-LUMO gap              1.332113364474 eV    ::
         ::.................................................::
         :: SCC energy              -136.542313979949 Eh    ::
         :: -> isotropic ES            0.041671649539 Eh    ::
         :: -> anisotropic ES          0.012472675265 Eh    ::
         :: -> anisotropic XC          0.049706923494 Eh    ::
         :: -> dispersion             -0.120119041441 Eh    ::
         :: repulsion energy           2.237493278382 Eh    ::
         :: add. restraining           0.000000000000 Eh    ::
         :: total charge               0.000000000004 e     ::
         :::::::::::::::::::::::::::::::::::::::::::::::::::::

           -------------------------------------------------
          |                Property Printout                |
           -------------------------------------------------

    * Orbital Energies and Occupations

         #    Occupation            Energy/Eh            Energy/eV
      -------------------------------------------------------------
         1        2.0000           -0.6748152             -18.3627
       ...           ...                  ...                  ...
       113        2.0000           -0.4035260             -10.9805
       114        2.0000           -0.3743642             -10.1870
       115        2.0000           -0.3732099             -10.1556
       116        2.0000           -0.3726526             -10.1404
       117        2.0000           -0.3703842             -10.0787
       118        2.0000           -0.3703539             -10.0778
       119        2.0000           -0.3660789              -9.9615
       120        2.0000           -0.3660661              -9.9612
       121        2.0000           -0.3660256              -9.9601
       122        2.0000           -0.3660135              -9.9597
       123        2.0000           -0.3601760              -9.8009
       124        2.0000           -0.3601017              -9.7989
       125        2.0000           -0.3579999              -9.7417 (HOMO)
       126                         -0.3090456              -8.4096 (LUMO)
       127                         -0.2983496              -8.1185
       128                         -0.2983482              -8.1185
       129                         -0.2968096              -8.0766
       130                         -0.2957467              -8.0477
       131                         -0.2916836              -7.9371
       132                         -0.2631284              -7.1601
       133                         -0.2535295              -6.8989
       134                         -0.1929721              -5.2510
       135                         -0.1927554              -5.2451
       136                         -0.1796506              -4.8885
       ...                                ...                  ...
       240                          1.4104929              38.3815
      -------------------------------------------------------------
                  HL-Gap            0.0489543 Eh            1.3321 eV
             Fermi-level           -0.3334321 Eh           -9.0731 eV

     #   Z          covCN         q      C6AA      α(0)
     1  28 Ni       3.027    -0.294   189.418    28.398
     2   6 C        3.022    -0.052    29.275     8.875
     3   6 C        3.023    -0.050    29.218     8.867
     4   6 C        3.181     0.073    25.957     8.317
     5   6 C        2.955     0.027    27.404     8.586
     6   6 C        3.182     0.073    25.952     8.315
     7   6 C        3.022    -0.051    29.239     8.870
     8   6 C        3.023    -0.052    29.274     8.875
     9   6 C        3.170     0.073    26.014     8.332
    10   7 N        2.627    -0.047    22.163     6.992
    11   6 C        2.904    -0.042    29.033     8.835
    12   6 C        3.168     0.074    26.003     8.332
    13   6 C        3.020    -0.051    29.249     8.871
    14   6 C        3.021    -0.051    29.251     8.872
    15   6 C        3.168     0.074    25.996     8.331
    16   7 N        2.627    -0.047    22.156     6.991
    17   6 C        2.904    -0.043    29.076     8.841
    18   6 C        3.167     0.074    25.996     8.331
    19   6 C        3.021    -0.051    29.251     8.872
    20   6 C        3.020    -0.051    29.249     8.871
    21   6 C        3.168     0.074    26.003     8.332
    22   7 N        2.626    -0.047    22.156     6.991
    23   6 C        2.904    -0.042    29.034     8.835
    24   6 C        3.170     0.073    26.012     8.332
    25   7 N        2.627    -0.047    22.164     6.992
    26   1 H        0.926     0.035     2.513     2.479
    27   1 H        0.926     0.036     2.507     2.476
    28   1 H        0.926     0.037     2.485     2.465
    29   1 H        0.926     0.035     2.512     2.479
    30   1 H        0.926     0.049     2.333     2.388
    31   1 H        0.926     0.036     2.508     2.476
    32   1 H        0.926     0.036     2.509     2.477
    33   1 H        0.926     0.048     2.341     2.393
    34   1 H        0.926     0.036     2.509     2.477
    35   1 H        0.926     0.036     2.508     2.476
    36   1 H        0.926     0.049     2.333     2.389
    37   6 C        1.989    -0.029    31.823     9.110
    38   6 C        1.989    -0.029    31.827     9.111
    39  28 Ni       3.036    -0.294   189.435    28.399
    40   6 C        3.022    -0.052    29.274     8.875
    41   6 C        3.022    -0.051    29.240     8.870
    42   6 C        3.181     0.073    25.960     8.317
    43   6 C        2.955     0.027    27.402     8.586
    44   6 C        3.180     0.073    25.963     8.318
    45   6 C        3.022    -0.050    29.217     8.866
    46   6 C        3.022    -0.052    29.275     8.875
    47   6 C        3.169     0.073    26.017     8.333
    48   7 N        2.630    -0.047    22.161     6.992
    49   6 C        2.904    -0.042    29.032     8.835
    50   6 C        3.167     0.074    26.008     8.333
    51   6 C        3.020    -0.051    29.249     8.871
    52   6 C        3.021    -0.051    29.251     8.872
    53   6 C        3.166     0.074    26.003     8.333
    54   7 N        2.629    -0.047    22.152     6.990
    55   6 C        2.903    -0.043    29.073     8.841
    56   6 C        3.166     0.074    26.003     8.333
    57   6 C        3.021    -0.051    29.251     8.872
    58   6 C        3.020    -0.051    29.250     8.871
    59   6 C        3.166     0.074    26.011     8.334
    60   7 N        2.629    -0.046    22.149     6.990
    61   6 C        2.904    -0.041    29.030     8.835
    62   6 C        3.169     0.073    26.021     8.334
    63   7 N        2.630    -0.047    22.155     6.991
    64   1 H        0.926     0.035     2.512     2.478
    65   1 H        0.926     0.037     2.489     2.467
    66   1 H        0.926     0.036     2.504     2.474
    67   1 H        0.926     0.035     2.513     2.479
    68   1 H        0.926     0.049     2.334     2.389
    69   1 H        0.926     0.036     2.508     2.476
    70   1 H        0.926     0.036     2.509     2.477
    71   1 H        0.926     0.048     2.342     2.393
    72   1 H        0.926     0.036     2.509     2.477
    73   1 H        0.926     0.036     2.508     2.477
    74   1 H        0.926     0.049     2.334     2.389

 Mol. C6AA /au·bohr⁶  :     103125.554855
 Mol. C8AA /au·bohr⁸  :    3021159.956668
 Mol. α(0) /au        :        530.294246


Wiberg/Mayer (AO) data.
largest (>0.10) Wiberg bond orders for each atom

 ---------------------------------------------------------------------------
     #   Z sym  total        # sym  WBO       # sym  WBO       # sym  WBO
 ---------------------------------------------------------------------------
     1  28 Ni   3.480 --    25 N    0.753    10 N    0.753    22 N    0.752
                            16 N    0.752
     2   6 C    3.953 --     3 C    1.646    24 C    1.169    26 H    0.972
     3   6 C    3.958 --     2 C    1.646     4 C    1.178    27 H    0.966
     4   6 C    3.922 --    25 N    1.259     5 C    1.259     3 C    1.178
     5   6 C    3.945 --     4 C    1.259     6 C    1.258    37 C    1.166
     6   6 C    3.922 --    10 N    1.260     5 C    1.258     7 C    1.178
     7   6 C    3.958 --     8 C    1.646     6 C    1.178    28 H    0.967
     8   6 C    3.953 --     7 C    1.646     9 C    1.169    29 H    0.972
     9   6 C    3.931 --    11 C    1.355    10 N    1.228     8 C    1.169
    10   7 N    3.577 --     6 C    1.260     9 C    1.228     1 Ni   0.753
    11   6 C    3.936 --     9 C    1.355    12 C    1.354    30 H    0.964
    12   6 C    3.935 --    11 C    1.354    16 N    1.239    13 C    1.161
    13   6 C    3.957 --    14 C    1.661    12 C    1.161    31 H    0.972
    14   6 C    3.955 --    13 C    1.661    15 C    1.161    32 H    0.972
    15   6 C    3.937 --    17 C    1.353    16 N    1.242    14 C    1.161
    16   7 N    3.572 --    15 C    1.242    12 C    1.239     1 Ni   0.752
    17   6 C    3.932 --    18 C    1.353    15 C    1.353    33 H    0.964
    18   6 C    3.937 --    17 C    1.353    22 N    1.242    19 C    1.161
    19   6 C    3.955 --    20 C    1.661    18 C    1.161    34 H    0.972
    20   6 C    3.957 --    19 C    1.661    21 C    1.161    35 H    0.972
    21   6 C    3.935 --    23 C    1.354    22 N    1.239    20 C    1.161
    22   7 N    3.572 --    18 C    1.242    21 C    1.239     1 Ni   0.752
    23   6 C    3.936 --    24 C    1.354    21 C    1.354    36 H    0.964
    24   6 C    3.931 --    23 C    1.354    25 N    1.228     2 C    1.169
    25   7 N    3.577 --     4 C    1.259    24 C    1.228     1 Ni   0.753
    26   1 H    0.998 --     2 C    0.972
    27   1 H    0.998 --     3 C    0.966
    28   1 H    0.998 --     7 C    0.967
    29   1 H    0.998 --     8 C    0.972
    30   1 H    0.996 --    11 C    0.964
    31   1 H    0.998 --    13 C    0.972
    32   1 H    0.998 --    14 C    0.972
    33   1 H    0.997 --    17 C    0.964
    34   1 H    0.998 --    19 C    0.972
    35   1 H    0.998 --    20 C    0.972
    36   1 H    0.996 --    23 C    0.964
    37   6 C    3.929 --    38 C    2.586     5 C    1.166
    38   6 C    3.930 --    37 C    2.586    43 C    1.166
    39  28 Ni   3.483 --    63 N    0.753    48 N    0.753    60 N    0.752
                            54 N    0.752
    40   6 C    3.953 --    41 C    1.645    62 C    1.170    64 H    0.972
    41   6 C    3.958 --    40 C    1.645    42 C    1.178    65 H    0.967
    42   6 C    3.922 --    63 N    1.261    43 C    1.256    41 C    1.178
    43   6 C    3.945 --    44 C    1.259    42 C    1.256    38 C    1.166
    44   6 C    3.922 --    43 C    1.259    48 N    1.259    45 C    1.178
    45   6 C    3.958 --    46 C    1.646    44 C    1.178    66 H    0.966
    46   6 C    3.953 --    45 C    1.646    47 C    1.170    67 H    0.972
    47   6 C    3.931 --    49 C    1.353    48 N    1.229    46 C    1.170
    48   7 N    3.577 --    44 C    1.259    47 C    1.229    39 Ni   0.753
    49   6 C    3.935 --    50 C    1.354    47 C    1.353    68 H    0.964
    50   6 C    3.935 --    49 C    1.354    54 N    1.238    51 C    1.161
    51   6 C    3.957 --    52 C    1.661    50 C    1.161    69 H    0.972
    52   6 C    3.955 --    51 C    1.661    53 C    1.161    70 H    0.972
    53   6 C    3.937 --    55 C    1.352    54 N    1.242    52 C    1.161
    54   7 N    3.572 --    53 C    1.242    50 C    1.238    39 Ni   0.752
    55   6 C    3.932 --    56 C    1.353    53 C    1.352    71 H    0.964
    56   6 C    3.937 --    55 C    1.353    60 N    1.241    57 C    1.161
    57   6 C    3.955 --    58 C    1.661    56 C    1.161    72 H    0.972
    58   6 C    3.957 --    57 C    1.661    59 C    1.162    73 H    0.972
    59   6 C    3.935 --    61 C    1.353    60 N    1.239    58 C    1.162
    60   7 N    3.572 --    56 C    1.241    59 C    1.239    39 Ni   0.752
    61   6 C    3.936 --    62 C    1.355    59 C    1.353    74 H    0.964
    62   6 C    3.931 --    61 C    1.355    63 N    1.226    40 C    1.170
    63   7 N    3.577 --    42 C    1.261    62 C    1.226    39 Ni   0.753
    64   1 H    0.998 --    40 C    0.972
    65   1 H    0.998 --    41 C    0.967
    66   1 H    0.998 --    45 C    0.966
    67   1 H    0.998 --    46 C    0.972
    68   1 H    0.996 --    49 C    0.964
    69   1 H    0.998 --    51 C    0.972
    70   1 H    0.998 --    52 C    0.972
    71   1 H    0.997 --    55 C    0.964
    72   1 H    0.998 --    57 C    0.972
    73   1 H    0.998 --    58 C    0.972
    74   1 H    0.996 --    61 C    0.964
 ---------------------------------------------------------------------------

Topologies differ in total number of bonds
Writing topology from bond orders to xtbtopo.mol

molecular dipole:
                 x           y           z       tot (Debye)
 q only:        0.001       0.013      -0.006
   full:        0.000       0.014      -0.014       0.051
molecular quadrupole (traceless):
                xx          xy          yy          xz          yz          zz
 q only:       15.582       0.788       9.968      -1.864       0.022     -25.549
  q+dip:       31.860       1.067      20.085      -3.923       0.039     -51.945
   full:       19.812       0.864      11.354      -2.551       0.028     -31.166


           -------------------------------------------------
          | TOTAL ENERGY             -134.306189611017 Eh   |
          | GRADIENT NORM               0.000189717679 Eh/α |
          | HOMO-LUMO GAP               1.332113364474 eV   |
           -------------------------------------------------

------------------------------------------------------------------------
 * finished run on 2021/11/21 at 19:08:26.901     
------------------------------------------------------------------------
 total:
 * wall-time:     0 d,  0 h,  0 min,  0.303 sec
 *  cpu-time:     0 d,  0 h,  0 min,  0.303 sec
 * ratio c/w:     1.000 speedup
 SCF:
 * wall-time:     0 d,  0 h,  0 min,  0.269 sec
 *  cpu-time:     0 d,  0 h,  0 min,  0.269 sec
 * ratio c/w:     1.000 speedup

