      -----------------------------------------------------------      
     |                   =====================                   |     
     |                           x T B                           |     
     |                   =====================                   |     
     |                         S. Grimme                         |     
     |          Mulliken Center for Theoretical Chemistry        |     
     |                    University of Bonn                     |     
      -----------------------------------------------------------      

   * xtb version 6.4.1 (bd6e46d) compiled by 'conda@4901f00b25ba' on 2021-06-10

   xtb is free software: you can redistribute it and/or modify it under
   the terms of the GNU Lesser General Public License as published by
   the Free Software Foundation, either version 3 of the License, or
   (at your option) any later version.
   
   xtb is distributed in the hope that it will be useful,
   but WITHOUT ANY WARRANTY; without even the implied warranty of
   MERCHANTABILITY or FITNESS FOR A PARTICULAR PURPOSE.  See the
   GNU Lesser General Public License for more details.
   
   Cite this work as:
   * C. Bannwarth, E. Caldeweyher, S. Ehlert, A. Hansen, P. Pracht,
     J. Seibert, S. Spicher, S. Grimme, WIREs Comput. Mol. Sci., 2020, 11,
     e01493. DOI: 10.1002/wcms.1493
   
   for GFN2-xTB:
   * C. Bannwarth, S. Ehlert and S. Grimme., J. Chem. Theory Comput., 2019,
     15, 1652-1671. DOI: 10.1021/acs.jctc.8b01176
   for GFN1-xTB:
   * S. Grimme, C. Bannwarth, P. Shushkov, J. Chem. Theory Comput., 2017,
     13, 1989-2009. DOI: 10.1021/acs.jctc.7b00118
   for GFN0-xTB:
   * P. Pracht, E. Caldeweyher, S. Ehlert, S. Grimme, ChemRxiv, 2019, preprint.
     DOI: 10.26434/chemrxiv.8326202.v1
   for GFN-FF:
   * S. Spicher and S. Grimme, Angew. Chem. Int. Ed., 2020, 59, 15665-15673.
     DOI: 10.1002/anie.202004239
   
   for DFT-D4:
   * E. Caldeweyher, C. Bannwarth and S. Grimme, J. Chem. Phys., 2017,
     147, 034112. DOI: 10.1063/1.4993215
   * E. Caldeweyher, S. Ehlert, A. Hansen, H. Neugebauer, S. Spicher,
     C. Bannwarth and S. Grimme, J. Chem. Phys., 2019, 150, 154122.
     DOI: 10.1063/1.5090222
   * E. Caldeweyher, J.-M. Mewes, S. Ehlert and S. Grimme, Phys. Chem. Chem. Phys.
     2020, 22, 8499-8512. DOI: 10.1039/D0CP00502A
   
   for sTDA-xTB:
   * S. Grimme and C. Bannwarth, J. Chem. Phys., 2016, 145, 054103.
     DOI: 10.1063/1.4959605
   
   in the mass-spec context:
   * V. Asgeirsson, C. Bauer and S. Grimme, Chem. Sci., 2017, 8, 4879.
     DOI: 10.1039/c7sc00601b
   * J. Koopman and S. Grimme, ACS Omega 2019, 4, 12, 15120-15133.
     DOI: 10.1021/acsomega.9b02011
   
   for metadynamics refer to:
   * S. Grimme, J. Chem. Theory Comput., 2019, 155, 2847-2862
     DOI: 10.1021/acs.jctc.9b00143
   
   for SPH calculations refer to:
   * S. Spicher and S. Grimme, J. Chem. Theory Comput., 2021, 17, 1701-1714
     DOI: 10.1021/acs.jctc.0c01306
   
   with help from (in alphabetical order)
   P. Atkinson, C. Bannwarth, F. Bohle, G. Brandenburg, E. Caldeweyher
   M. Checinski, S. Dohm, S. Ehlert, S. Ehrlich, I. Gerasimov, J. Koopman
   C. Lavigne, S. Lehtola, F. März, M. Müller, F. Musil, H. Neugebauer
   J. Pisarek, C. Plett, P. Pracht, J. Seibert, P. Shushkov, S. Spicher
   M. Stahn, M. Steiner, T. Strunk, J. Stückrath, T. Rose, and J. Unsleber
   
 * started run on 2021/11/19 at 15:23:25.949     

           -------------------------------------------------
          |                Calculation Setup                |
           -------------------------------------------------

          program call               : /home/jeff/miniconda3/bin/xtb input_structure_1.xyz --gfn 2 --ohess normal --parallel 1 --etemp 300 --chrg 0 --uhf 0 -I det_control.in
          hostname                   : jelfscompute1
          coordinate file            : input_structure_1.xyz
          omp threads                :                     1
          number of atoms            :                   185
          number of electrons        :                   634
          charge                     :                     0
          spin                       :                   0.0
          first test random number   :      0.42028151386908

   ID    Z sym.   atoms
    1   28 Ni     1, 37, 81, 116, 151
    2    6 C      2-9, 11-15, 17-21, 23, 24, 38-45, 47-51, 53-57, 59, 60,
                  73-80, 82-89, 91-95, 97-101, 103, 104, 117-124, 126-130,
                  132-136, 138, 139, 152-159, 161-165, 167-171, 173, 174
    3    7 N      10, 16, 22, 25, 46, 52, 58, 61, 90, 96, 102, 105, 125, 131,
                  137, 140, 160, 166, 172, 175
    4    1 H      26-36, 62-72, 106-115, 141-150, 176-185

molecular fragmentation (1/2 indicates fragments):
111111111111111111111111111111111111222222222222222222222222222222222222
222222222222222222222222222222222222222222222222222222222222222222222222
22222222222222222222222222222222222222222
# atoms in fragment 1/2:    36   149
 fragment masses (1/2) :      366.02     1557.15
CMA distance (Bohr)    :  53.460
constraining FC (au)   :  0.0500

           -------------------------------------------------
          |                 G F N 2 - x T B                 |
           -------------------------------------------------

        Reference                      10.1021/acs.jctc.8b01176
      * Hamiltonian:
        H0-scaling (s, p, d)           1.850000    2.230000    2.230000
        zeta-weighting                 0.500000
      * Dispersion:
        s8                             2.700000
        a1                             0.520000
        a2                             5.000000
        s9                             5.000000
      * Repulsion:
        kExp                           1.500000    1.000000
        rExp                           1.000000
      * Coulomb:
        alpha                          2.000000
        third order                    shell-resolved
        anisotropic                    true
        a3                             3.000000
        a5                             4.000000
        cn-shift                       1.200000
        cn-exp                         4.000000
        max-rad                        5.000000


          ...................................................
          :                      SETUP                      :
          :.................................................:
          :  # basis functions                 614          :
          :  # atomic orbitals                 609          :
          :  # shells                          323          :
          :  # electrons                       634          :
          :  max. iterations                   250          :
          :  Hamiltonian                  GFN2-xTB          :
          :  restarted?                      false          :
          :  GBSA solvation                  false          :
          :  PC potential                    false          :
          :  electronic temp.          300.0000000     K    :
          :  accuracy                    1.0000000          :
          :  -> integral cutoff          0.2500000E+02      :
          :  -> integral neglect         0.1000000E-07      :
          :  -> SCF convergence          0.1000000E-05 Eh   :
          :  -> wf. convergence          0.1000000E-03 e    :
          :  Broyden damping             0.4000000          :
          ...................................................

 iter      E             dE          RMSdq      gap      omega  full diag
   1   -344.0254395 -0.344025E+03  0.871E+00    0.63       0.0  T
   2   -339.0980547  0.492738E+01  0.623E+00    0.02       1.0  T
   3   -214.5391789  0.124559E+03  0.122E+01    0.22       1.0  T
   4   -222.7693892 -0.823021E+01  0.106E+01    0.12       1.0  T
   5   -295.0808474 -0.723115E+02  0.754E+00    0.03       1.0  T
   6   -254.2463591  0.408345E+02  0.780E+00    0.02       1.0  T
   7   -241.3503334  0.128960E+02  0.813E+00    0.01       1.0  T
   8   -329.0065583 -0.876562E+02  0.463E+00    0.02       1.0  T
   9   -337.4160617 -0.840950E+01  0.337E+00    0.03       1.0  T
  10   -342.9311994 -0.551514E+01  0.262E+00    0.23       1.0  T
  11   -344.5345078 -0.160331E+01  0.193E+00    0.05       1.0  T
  12   -344.5618805 -0.273728E-01  0.180E+00    0.02       1.0  T
  13   -342.9311358  0.163074E+01  0.306E+00    0.02       1.0  T
  14   -342.8895874  0.415483E-01  0.310E+00    0.02       1.0  T
  15   -342.3717970  0.517790E+00  0.340E+00    0.02       1.0  T
  16   -343.7875298 -0.141573E+01  0.232E+00    0.10       1.0  T
  17   -344.7953588 -0.100783E+01  0.144E+00    0.26       1.0  T
  18   -344.9202138 -0.124855E+00  0.109E+00    0.10       1.0  T
  19   -344.9432846 -0.230708E-01  0.999E-01    0.10       1.0  T
  20   -344.8708413  0.724434E-01  0.983E-01    0.04       1.0  T
  21   -344.8740029 -0.316160E-02  0.979E-01    0.04       1.0  T
  22   -344.7865609  0.874420E-01  0.105E+00    0.02       1.0  T
  23   -344.5817293  0.204832E+00  0.124E+00    0.03       1.0  T
  24   -344.6857350 -0.104006E+00  0.980E-01    0.04       1.0  T
  25   -344.9898088 -0.304074E+00  0.473E-01    0.06       1.0  T
  26   -344.3462483  0.643561E+00  0.155E+00    0.06       1.0  T
  27   -344.3419750  0.427327E-02  0.148E+00    0.03       1.0  T
  28   -344.2505314  0.914436E-01  0.159E+00    0.05       1.0  T
  29   -344.7984498 -0.547918E+00  0.907E-01    0.01       1.0  T
  30   -344.8153594 -0.169096E-01  0.900E-01    0.01       1.0  T
  31   -344.8854167 -0.700573E-01  0.777E-01    0.01       1.0  T
  32   -344.9522317 -0.668149E-01  0.585E-01    0.04       1.0  T
  33   -345.0301274 -0.778957E-01  0.463E-01    0.10       1.0  T
  34   -345.0289118  0.121555E-02  0.504E-01    0.10       1.0  T
  35   -345.0258647  0.304713E-02  0.540E-01    0.10       1.0  T
  36   -344.3219900  0.703875E+00  0.196E+00    0.06       1.0  T
  37   -344.5815076 -0.259518E+00  0.163E+00    0.02       1.0  T
  38   -344.4849734  0.965342E-01  0.178E+00    0.04       1.0  T
  39   -344.4840355  0.937970E-03  0.178E+00    0.04       1.0  T
  40   -344.4868688 -0.283334E-02  0.176E+00    0.04       1.0  T
  41   -344.3956673  0.912015E-01  0.202E+00    0.01       1.0  T
  42   -344.5241252 -0.128458E+00  0.185E+00    0.01       1.0  T
  43   -344.4632681  0.608571E-01  0.194E+00    0.02       1.0  T
  44   -344.2648490  0.198419E+00  0.205E+00    0.07       1.0  T
  45   -344.5981595 -0.333310E+00  0.163E+00    0.01       1.0  T
  46   -344.6996788 -0.101519E+00  0.118E+00    0.01       1.0  T
  47   -344.9520811 -0.252402E+00  0.634E-01    0.05       1.0  T
  48   -344.8271273  0.124954E+00  0.985E-01    0.01       1.0  T
  49   -344.8345114 -0.738402E-02  0.966E-01    0.01       1.0  T
  50   -344.8430830 -0.857170E-02  0.843E-01    0.01       1.0  T
  51   -344.9809131 -0.137830E+00  0.519E-01    0.05       1.0  T
  52   -344.9674343  0.134787E-01  0.655E-01    0.05       1.0  T
  53   -344.9835533 -0.161190E-01  0.604E-01    0.06       1.0  T
  54   -345.0033773 -0.198240E-01  0.527E-01    0.07       1.0  T
  55   -345.0099481 -0.657081E-02  0.503E-01    0.08       1.0  T
  56   -345.0278117 -0.178636E-01  0.409E-01    0.10       1.0  T
  57   -345.0350203 -0.720861E-02  0.368E-01    0.13       1.0  T
  58   -345.0339095  0.111085E-02  0.380E-01    0.12       1.0  T
  59   -345.0359245 -0.201506E-02  0.366E-01    0.13       1.0  T
  60   -345.0399834 -0.405891E-02  0.327E-01    0.13       1.0  T
  61   -345.0396195  0.363882E-03  0.331E-01    0.13       1.0  T
  62   -345.0399720 -0.352434E-03  0.327E-01    0.13       1.0  T
  63   -345.0451134 -0.514137E-02  0.261E-01    0.14       1.0  T
  64   -345.0453417 -0.228317E-03  0.247E-01    0.13       1.0  T
  65   -345.0453451 -0.342811E-05  0.247E-01    0.13       1.0  T
  66   -345.0455840 -0.238934E-03  0.241E-01    0.13       1.0  T
  67   -345.0471154 -0.153140E-02  0.217E-01    0.13       1.0  T
  68   -345.0477905 -0.675092E-03  0.201E-01    0.13       1.0  T
  69   -345.0483356 -0.545043E-03  0.192E-01    0.13       1.0  T
  70   -345.0479760  0.359543E-03  0.192E-01    0.12       1.0  T
  71   -345.0482184 -0.242407E-03  0.186E-01    0.12       1.0  T
  72   -345.0484623 -0.243890E-03  0.180E-01    0.12       1.0  T
  73   -345.0489950 -0.532689E-03  0.167E-01    0.13       1.0  T
  74   -345.0494887 -0.493679E-03  0.152E-01    0.13       1.0  T
  75   -345.0503060 -0.817321E-03  0.127E-01    0.13       1.0  T
  76   -345.0506481 -0.342126E-03  0.113E-01    0.13       1.0  T
  77   -345.0513170 -0.668834E-03  0.939E-02    0.14       1.0  T
  78   -345.0515770 -0.260064E-03  0.840E-02    0.14       1.0  T
  79   -345.0518955 -0.318428E-03  0.707E-02    0.15       1.0  T
  80   -345.0520484 -0.152963E-03  0.627E-02    0.15       1.0  T
  81   -345.0521549 -0.106471E-03  0.586E-02    0.15       1.0  T
  82   -345.0522200 -0.650644E-04  0.553E-02    0.15       1.0  T
  83   -345.0522681 -0.481571E-04  0.550E-02    0.15       1.0  T
  84   -345.0523247 -0.565993E-04  0.540E-02    0.16       1.0  T
  85   -345.0524548 -0.130078E-03  0.510E-02    0.16       1.0  T
  86   -345.0525722 -0.117441E-03  0.475E-02    0.16       1.0  T
  87   -345.0526596 -0.873875E-04  0.430E-02    0.17       1.0  T
  88   -345.0527257 -0.661123E-04  0.396E-02    0.17       1.0  T
  89   -345.0527913 -0.655475E-04  0.352E-02    0.17       1.0  T
  90   -345.0528423 -0.510165E-04  0.316E-02    0.17       1.0  T
  91   -345.0528803 -0.379509E-04  0.286E-02    0.17       1.0  T
  92   -345.0529415 -0.612846E-04  0.233E-02    0.17       1.0  T
  93   -345.0529658 -0.242498E-04  0.202E-02    0.17       1.0  T
  94   -345.0529767 -0.108964E-04  0.186E-02    0.17       1.0  T
  95   -345.0529915 -0.148620E-04  0.160E-02    0.17       1.0  T
  96   -345.0529987 -0.713754E-05  0.147E-02    0.17       1.0  T
  97   -345.0530078 -0.908780E-05  0.123E-02    0.17       1.0  T
  98   -345.0530155 -0.772856E-05  0.100E-02    0.17       1.0  T
  99   -345.0530235 -0.795276E-05  0.660E-03    0.17       1.1  T
 100   -345.0530272 -0.373743E-05  0.407E-03    0.17       1.8  T
 101   -345.0530286 -0.145443E-05  0.231E-03    0.17       3.2  T
 102   -345.0530289 -0.259899E-06  0.174E-03    0.17       4.2  T
 103   -345.0530292 -0.305151E-06  0.114E-03    0.17       6.4  T
 104   -345.0530293 -0.613900E-07  0.107E-03    0.17       6.9  T
 105   -345.0530293 -0.251208E-07  0.813E-04    0.17       9.0  T
 106   -345.0530293  0.145610E-07  0.822E-04    0.17       8.9  T

   *** convergence criteria satisfied after 106 iterations ***

         #    Occupation            Energy/Eh            Energy/eV
      -------------------------------------------------------------
         1        2.0000           -0.6892153             -18.7545
       ...           ...                  ...                  ...
       311        1.9996           -0.3473850              -9.4528
       312        1.9992           -0.3468155              -9.4373
       313        1.9990           -0.3466417              -9.4326
       314        1.9974           -0.3457186              -9.4075
       315        1.9882           -0.3442785              -9.3683
       316        1.9777           -0.3436651              -9.3516
       317        1.9238           -0.3424716              -9.3191 (HOMO)
       318        0.0622           -0.3361378              -9.1468 (LUMO)
       319        0.0533           -0.3359858              -9.1426
       320        0.0001           -0.3301632              -8.9842
       321        0.0001           -0.3299247              -8.9777
       322        0.0000           -0.3243146              -8.8251
       ...           ...                  ...                  ...
       609                          1.4310619              38.9412
      -------------------------------------------------------------
                  HL-Gap            0.0063338 Eh            0.1724 eV
             Fermi-level           -0.3394048 Eh           -9.2357 eV

 SCC (total)                   0 d,  0 h,  0 min,  9.994 sec
 SCC setup                      ...        0 min,  0.006 sec (  0.062%)
 Dispersion                     ...        0 min,  0.013 sec (  0.129%)
 classical contributions        ...        0 min,  0.002 sec (  0.016%)
 integral evaluation            ...        0 min,  0.111 sec (  1.111%)
 iterations                     ...        0 min,  9.540 sec ( 95.459%)
 molecular gradient             ...        0 min,  0.311 sec (  3.113%)
 printout                       ...        0 min,  0.011 sec (  0.111%)

         :::::::::::::::::::::::::::::::::::::::::::::::::::::
         ::                     SUMMARY                     ::
         :::::::::::::::::::::::::::::::::::::::::::::::::::::
         :: total energy            -339.235114927037 Eh    ::
         :: gradient norm              0.804698108853 Eh/a0 ::
         :: HOMO-LUMO gap              0.172351807720 eV    ::
         ::.................................................::
         :: SCC energy              -345.053029279012 Eh    ::
         :: -> isotropic ES            0.175717458121 Eh    ::
         :: -> anisotropic ES          0.024025411863 Eh    ::
         :: -> anisotropic XC          0.155622791064 Eh    ::
         :: -> dispersion             -0.299676850432 Eh    ::
         :: repulsion energy           5.817318233022 Eh    ::
         :: add. restraining           0.000000000000 Eh    ::
         :: total charge               0.000000000007 e     ::
         :::::::::::::::::::::::::::::::::::::::::::::::::::::

      ----------------------------------------------------------- 
     |                   =====================                   |
     |                        A N C O P T                        |
     |                   =====================                   |
     |               Approximate Normal Coordinate               |
     |                Rational Function Optimizer                |
      ----------------------------------------------------------- 

          ...................................................
          :                      SETUP                      :
          :.................................................:
          :   optimization level            normal          :
          :   max. optcycles                   555          :
          :   ANC micro-cycles                  20          :
          :   degrees of freedom               549          :
          :.................................................:
          :   RF solver                   davidson          :
          :   write xtbopt.log                true          :
          :   linear?                        false          :
          :   energy convergence         0.5000000E-05 Eh   :
          :   grad. convergence          0.1000000E-02 Eh/α :
          :   maximium RF displ.         1.0000000          :
          :   Hlow (freq-cutoff)         0.1000000E-01      :
          :   Hmax (freq-cutoff)         5.0000000          :
          :   S6 in model hess.         20.0000000          :
          ...................................................

generating ANC from model Hessian ...
Using Lindh-Hessian (1995)
 Shifting diagonal of input Hessian by    1.0025756514957714E-002
 Lowest  eigenvalues of input Hessian
    0.010000    0.010001    0.010003    0.010004    0.010010    0.010011
    0.010016    0.010017    0.010020    0.010023    0.000000    0.000000
    0.000000    0.000000    0.000000    0.000000    0.010027    0.010035
 Highest eigenvalues
    2.210448    2.211512    2.393221    2.512585    2.732929    2.732929


........................................................................
.............................. CYCLE    1 ..............................
........................................................................
   1   -345.0530293 -0.345053E+03  0.729E-04    0.17       0.0  T
   2   -345.0530281  0.121861E-05  0.203E-03    0.17       3.6  T
   3   -345.0530293 -0.122913E-05  0.659E-04    0.17      11.2  T
   4   -345.0530293  0.268716E-07  0.891E-04    0.17       8.2  T
   5   -345.0530293 -0.238797E-07  0.517E-04    0.17      14.2  T
     SCC iter.                  ...        0 min,  0.455 sec
     gradient                   ...        0 min,  0.310 sec
 * total energy  :  -339.2351149 Eh     change       -0.1398473E-07 Eh
   gradient norm :     0.8047034 Eh/α   predicted     0.0000000E+00 (-100.00%)
   displ. norm   :     0.5955159 α      lambda       -0.3783465E+00
   maximum displ.:     0.1704591 α      in ANC's #189, #188, #537, ...

........................................................................
.............................. CYCLE    2 ..............................
........................................................................
   1   -345.0396482 -0.345040E+03  0.373E-01    0.18       0.0  T
   2   -345.0259257  0.137225E-01  0.335E-01    0.15       1.0  T
   3   -345.0017778  0.241479E-01  0.450E-01    0.08       1.0  T
   4   -345.0441137 -0.423359E-01  0.216E-01    0.28       1.0  T
   5   -344.9969994  0.471143E-01  0.473E-01    0.07       1.0  T
   6   -345.0499020 -0.529025E-01  0.163E-01    0.20       1.0  T
   7   -345.0523392 -0.243719E-02  0.122E-01    0.24       1.0  T
   8   -345.0534078 -0.106859E-02  0.108E-01    0.27       1.0  T
   9   -345.0544397 -0.103197E-02  0.893E-02    0.25       1.0  T
  10   -345.0543693  0.704302E-04  0.826E-02    0.24       1.0  T
  11   -345.0546929 -0.323591E-03  0.657E-02    0.22       1.0  T
  12   -345.0551369 -0.443975E-03  0.437E-02    0.19       1.0  T
  13   -345.0552702 -0.133340E-03  0.391E-02    0.20       1.0  T
  14   -345.0552350  0.352176E-04  0.366E-02    0.19       1.0  T
  15   -345.0553379 -0.102902E-03  0.329E-02    0.19       1.0  T
  16   -345.0553682 -0.302771E-04  0.286E-02    0.19       1.0  T
  17   -345.0554260 -0.578572E-04  0.240E-02    0.20       1.0  T
  18   -345.0554694 -0.433825E-04  0.182E-02    0.20       1.0  T
  19   -345.0555090 -0.395912E-04  0.126E-02    0.20       1.0  T
  20   -345.0555249 -0.159481E-04  0.842E-03    0.20       1.0  T
  21   -345.0555353 -0.103764E-04  0.435E-03    0.20       1.7  T
  22   -345.0555371 -0.173732E-05  0.302E-03    0.20       2.4  T
  23   -345.0555384 -0.128898E-05  0.108E-03    0.20       6.8  T
  24   -345.0555385 -0.163352E-06  0.444E-04    0.20      16.6  T
  25   -345.0555385 -0.115510E-07  0.361E-04    0.20      20.4  T
     SCC iter.                  ...        0 min,  2.247 sec
     gradient                   ...        0 min,  0.311 sec
 * total energy  :  -339.5391046 Eh     change       -0.3039897E+00 Eh
   gradient norm :     0.4577022 Eh/α   predicted    -0.2563246E+00 ( -15.68%)
   displ. norm   :     0.6941418 α      lambda       -0.2550454E+00
   maximum displ.:     0.2171108 α      in ANC's #189, #188, #183, ...

........................................................................
.............................. CYCLE    3 ..............................
........................................................................
   1   -345.0923653 -0.345092E+03  0.397E-01    0.20       0.0  T
   2   -345.0862838  0.608147E-02  0.318E-01    0.28       1.0  T
   3   -345.0868301 -0.546321E-03  0.304E-01    0.19       1.0  T
   4   -345.0900819 -0.325175E-02  0.279E-01    0.23       1.0  T
   5   -345.1065924 -0.165105E-01  0.101E-01    0.24       1.0  T
   6   -345.1084645 -0.187204E-02  0.538E-02    0.23       1.0  T
   7   -345.1088815 -0.416985E-03  0.365E-02    0.23       1.0  T
   8   -345.1089528 -0.713015E-04  0.310E-02    0.25       1.0  T
   9   -345.1089367  0.160412E-04  0.285E-02    0.23       1.0  T
  10   -345.1090817 -0.144949E-03  0.145E-02    0.24       1.0  T
  11   -345.1091080 -0.263152E-04  0.932E-03    0.24       1.0  T
  12   -345.1091046  0.335006E-05  0.927E-03    0.23       1.0  T
  13   -345.1091237 -0.190473E-04  0.456E-03    0.24       1.6  T
  14   -345.1091269 -0.326032E-05  0.254E-03    0.24       2.9  T
  15   -345.1091273 -0.401259E-06  0.162E-03    0.24       4.5  T
  16   -345.1091282 -0.855464E-06  0.107E-03    0.24       6.9  T
  17   -345.1091285 -0.262897E-06  0.539E-04    0.24      13.6  T
  18   -345.1091285 -0.328918E-07  0.276E-04    0.24      26.6  T
     SCC iter.                  ...        0 min,  1.618 sec
     gradient                   ...        0 min,  0.311 sec
 * total energy  :  -339.7347770 Eh     change       -0.1956724E+00 Eh
   gradient norm :     0.2075397 Eh/α   predicted    -0.1889674E+00 (  -3.43%)
   displ. norm   :     0.7717337 α      lambda       -0.1393465E+00
   maximum displ.:     0.2494374 α      in ANC's #189, #188, #183, ...

........................................................................
.............................. CYCLE    4 ..............................
........................................................................
   1   -345.1941021 -0.345194E+03  0.353E-01    0.24       0.0  T
   2   -345.1944324 -0.330256E-03  0.228E-01    0.39       1.0  T
   3   -345.1921417  0.229066E-02  0.220E-01    0.26       1.0  T
   4   -345.1815255  0.106162E-01  0.279E-01    0.28       1.0  T
   5   -345.2006495 -0.191240E-01  0.667E-02    0.30       1.0  T
   6   -345.2014574 -0.807879E-03  0.357E-02    0.31       1.0  T
   7   -345.2017000 -0.242639E-03  0.209E-02    0.29       1.0  T
   8   -345.2017065 -0.646430E-05  0.172E-02    0.31       1.0  T
   9   -345.2017645 -0.579790E-04  0.796E-03    0.31       1.0  T
  10   -345.2017699 -0.541534E-05  0.558E-03    0.30       1.3  T
  11   -345.2017702 -0.328078E-06  0.520E-03    0.31       1.4  T
  12   -345.2017725 -0.224928E-05  0.369E-03    0.31       2.0  T
  13   -345.2017751 -0.258025E-05  0.183E-03    0.30       4.0  T
  14   -345.2017758 -0.720761E-06  0.107E-03    0.31       6.9  T
  15   -345.2017760 -0.258835E-06  0.534E-04    0.30      13.8  T
  16   -345.2017761 -0.112693E-07  0.378E-04    0.30      19.4  T
     SCC iter.                  ...        0 min,  1.440 sec
     gradient                   ...        0 min,  0.311 sec
 * total energy  :  -339.8504023 Eh     change       -0.1156253E+00 Eh
   gradient norm :     0.1278079 Eh/α   predicted    -0.1111690E+00 (  -3.85%)
   displ. norm   :     0.8278370 α      lambda       -0.9958970E-01
   maximum displ.:     0.2407956 α      in ANC's #189, #188, #93, ...

........................................................................
.............................. CYCLE    5 ..............................
........................................................................
   1   -345.2874107 -0.345287E+03  0.350E-01    0.34       0.0  T
   2   -345.2883497 -0.939006E-03  0.207E-01    0.46       1.0  T
   3   -345.2821911  0.615861E-02  0.224E-01    0.42       1.0  T
   4   -345.2795489  0.264221E-02  0.218E-01    0.38       1.0  T
   5   -345.2907548 -0.112059E-01  0.605E-02    0.41       1.0  T
   6   -345.2916229 -0.868051E-03  0.267E-02    0.44       1.0  T
   7   -345.2917217 -0.988193E-04  0.161E-02    0.43       1.0  T
   8   -345.2916634  0.583396E-04  0.186E-02    0.44       1.0  T
   9   -345.2917306 -0.672369E-04  0.946E-03    0.44       1.0  T
  10   -345.2917503 -0.196874E-04  0.381E-03    0.43       1.9  T
  11   -345.2917526 -0.229813E-05  0.202E-03    0.43       3.6  T
  12   -345.2917525  0.931777E-07  0.150E-03    0.43       4.9  T
  13   -345.2917530 -0.535132E-06  0.671E-04    0.43      11.0  T
  14   -345.2917531 -0.413891E-07  0.449E-04    0.43      16.4  T
     SCC iter.                  ...        0 min,  1.261 sec
     gradient                   ...        0 min,  0.311 sec
 * total energy  :  -339.9373972 Eh     change       -0.8699488E-01 Eh
   gradient norm :     0.1062168 Eh/α   predicted    -0.8392101E-01 (  -3.53%)
   displ. norm   :     0.8619549 α      lambda       -0.7981120E-01
   maximum displ.:     0.2566782 α      in ANC's #93, #189, #21, ...

........................................................................
.............................. CYCLE    6 ..............................
........................................................................
   1   -345.3710517 -0.345371E+03  0.353E-01    0.54       0.0  T
   2   -345.3694175  0.163421E-02  0.232E-01    0.63       1.0  T
   3   -345.3504398  0.189777E-01  0.324E-01    0.66       1.0  T
   4   -345.3696062 -0.191664E-01  0.148E-01    0.61       1.0  T
   5   -345.3733798 -0.377357E-02  0.603E-02    0.61       1.0  T
   6   -345.3742609 -0.881082E-03  0.260E-02    0.65       1.0  T
   7   -345.3742585  0.233544E-05  0.218E-02    0.64       1.0  T
   8   -345.3742572  0.133491E-05  0.186E-02    0.63       1.0  T
   9   -345.3743405 -0.833434E-04  0.502E-03    0.64       1.5  T
  10   -345.3743445 -0.399147E-05  0.262E-03    0.64       2.8  T
  11   -345.3743454 -0.903051E-06  0.142E-03    0.64       5.2  T
  12   -345.3743455 -0.546423E-07  0.902E-04    0.64       8.2  T
  13   -345.3743456 -0.152971E-06  0.436E-04    0.64      16.9  T
     SCC iter.                  ...        0 min,  1.173 sec
     gradient                   ...        0 min,  0.311 sec
 * total energy  :  -340.0089252 Eh     change       -0.7152796E-01 Eh
   gradient norm :     0.0887372 Eh/α   predicted    -0.6955412E-01 (  -2.76%)
   displ. norm   :     0.8934482 α      lambda       -0.6723139E-01
   maximum displ.:     0.2838058 α      in ANC's #21, #93, #59, ...

........................................................................
.............................. CYCLE    7 ..............................
........................................................................
   1   -345.4421839 -0.345442E+03  0.353E-01    0.84       0.0  T
   2   -345.4397943  0.238967E-02  0.244E-01    0.90       1.0  T
   3   -345.4260376  0.137567E-01  0.304E-01    0.96       1.0  T
   4   -345.4428687 -0.168312E-01  0.105E-01    0.92       1.0  T
   5   -345.4442866 -0.141781E-02  0.534E-02    0.92       1.0  T
   6   -345.4448842 -0.597645E-03  0.272E-02    0.95       1.0  T
   7   -345.4448755  0.875077E-05  0.210E-02    0.94       1.0  T
   8   -345.4449253 -0.498087E-04  0.123E-02    0.93       1.0  T
   9   -345.4449632 -0.379632E-04  0.379E-03    0.94       1.9  T
  10   -345.4449647 -0.147236E-05  0.231E-03    0.94       3.2  T
  11   -345.4449656 -0.859642E-06  0.120E-03    0.94       6.1  T
  12   -345.4449657 -0.178139E-06  0.730E-04    0.94      10.1  T
  13   -345.4449658 -0.865725E-07  0.361E-04    0.94      20.4  T
     SCC iter.                  ...        0 min,  1.172 sec
     gradient                   ...        0 min,  0.312 sec
 * total energy  :  -340.0710248 Eh     change       -0.6209959E-01 Eh
   gradient norm :     0.0748503 Eh/α   predicted    -0.6044945E-01 (  -2.66%)
   displ. norm   :     0.9345055 α      lambda       -0.6120681E-01
   maximum displ.:     0.3658330 α      in ANC's #21, #59, #15, ...

........................................................................
.............................. CYCLE    8 ..............................
........................................................................
   1   -345.4959196 -0.345496E+03  0.350E-01    1.14       0.0  T
   2   -345.4944032  0.151636E-02  0.241E-01    1.19       1.0  T
   3   -345.4846582  0.974503E-02  0.272E-01    1.17       1.0  T
   4   -345.4975080 -0.128499E-01  0.745E-02    1.16       1.0  T
   5   -345.4980201 -0.512037E-03  0.354E-02    1.19       1.0  T
   6   -345.4980526 -0.325344E-04  0.287E-02    1.18       1.0  T
   7   -345.4981365 -0.839159E-04  0.148E-02    1.18       1.0  T
   8   -345.4981700 -0.334782E-04  0.615E-03    1.19       1.2  T
   9   -345.4981780 -0.796111E-05  0.321E-03    1.18       2.3  T
  10   -345.4981798 -0.185637E-05  0.169E-03    1.18       4.4  T
  11   -345.4981802 -0.348223E-06  0.949E-04    1.18       7.7  T
  12   -345.4981803 -0.771378E-07  0.573E-04    1.18      12.8  T
     SCC iter.                  ...        0 min,  1.080 sec
     gradient                   ...        0 min,  0.312 sec
 * total energy  :  -340.1299432 Eh     change       -0.5891845E-01 Eh
   gradient norm :     0.0696967 Eh/α   predicted    -0.5732940E-01 (  -2.70%)
   displ. norm   :     0.9660913 α      lambda       -0.6032387E-01
   maximum displ.:     0.4256988 α      in ANC's #21, #59, #15, ...

........................................................................
.............................. CYCLE    9 ..............................
........................................................................
   1   -345.5370557 -0.345537E+03  0.329E-01    1.19       0.0  T
   2   -345.5360615  0.994192E-03  0.232E-01    1.22       1.0  T
   3   -345.5279228  0.813870E-02  0.244E-01    1.21       1.0  T
   4   -345.5382424 -0.103195E-01  0.630E-02    1.21       1.0  T
   5   -345.5385722 -0.329857E-03  0.349E-02    1.22       1.0  T
   6   -345.5386364 -0.641718E-04  0.250E-02    1.22       1.0  T
   7   -345.5387203 -0.838621E-04  0.118E-02    1.22       1.0  T
   8   -345.5387411 -0.208466E-04  0.414E-03    1.22       1.8  T
   9   -345.5387431 -0.202657E-05  0.241E-03    1.22       3.1  T
  10   -345.5387437 -0.552693E-06  0.136E-03    1.22       5.4  T
  11   -345.5387439 -0.237137E-06  0.798E-04    1.22       9.2  T
  12   -345.5387440 -0.545870E-07  0.488E-04    1.22      15.1  T
     SCC iter.                  ...        0 min,  1.081 sec
     gradient                   ...        0 min,  0.312 sec
 * total energy  :  -340.1888739 Eh     change       -0.5893070E-01 Eh
   gradient norm :     0.0692293 Eh/α   predicted    -0.5831306E-01 (  -1.05%)
   displ. norm   :     0.9702150 α      lambda       -0.6017758E-01
   maximum displ.:     0.4607862 α      in ANC's #21, #59, #15, ...

........................................................................
.............................. CYCLE   10 ..............................
........................................................................
   1   -345.5735367 -0.345574E+03  0.285E-01    1.22       0.0  T
   2   -345.5724638  0.107298E-02  0.217E-01    1.23       1.0  T
   3   -345.5666918  0.577199E-02  0.205E-01    1.20       1.0  T
   4   -345.5743238 -0.763204E-02  0.544E-02    1.19       1.0  T
   5   -345.5746499 -0.326071E-03  0.326E-02    1.21       1.0  T
   6   -345.5747245 -0.745674E-04  0.211E-02    1.20       1.0  T
   7   -345.5747640 -0.395323E-04  0.109E-02    1.21       1.0  T
   8   -345.5747858 -0.217683E-04  0.350E-03    1.21       2.1  T
   9   -345.5747871 -0.138953E-05  0.205E-03    1.21       3.6  T
  10   -345.5747875 -0.311780E-06  0.124E-03    1.21       5.9  T
  11   -345.5747877 -0.259895E-06  0.611E-04    1.21      12.0  T
  12   -345.5747878 -0.494505E-07  0.394E-04    1.21      18.7  T
     SCC iter.                  ...        0 min,  1.081 sec
     gradient                   ...        0 min,  0.312 sec
 * total energy  :  -340.2438930 Eh     change       -0.5501907E-01 Eh
   gradient norm :     0.0612723 Eh/α   predicted    -0.5841193E-01 (   6.17%)
   displ. norm   :     0.9038836 α      lambda       -0.4683384E-01
   maximum displ.:     0.4977503 α      in ANC's #21, #15, #59, ...

........................................................................
.............................. CYCLE   11 ..............................
........................................................................
   1   -345.6063178 -0.345606E+03  0.217E-01    1.20       0.0  T
   2   -345.6054705  0.847352E-03  0.173E-01    1.22       1.0  T
   3   -345.6022881  0.318234E-02  0.151E-01    1.20       1.0  T
   4   -345.6067937 -0.450561E-02  0.410E-02    1.20       1.0  T
   5   -345.6069826 -0.188869E-03  0.246E-02    1.21       1.0  T
   6   -345.6069573  0.252903E-04  0.180E-02    1.21       1.0  T
   7   -345.6070076 -0.502552E-04  0.889E-03    1.21       1.0  T
   8   -345.6070318 -0.241999E-04  0.295E-03    1.21       2.5  T
   9   -345.6070333 -0.153325E-05  0.148E-03    1.21       5.0  T
  10   -345.6070334 -0.721404E-07  0.927E-04    1.21       7.9  T
  11   -345.6070335 -0.106006E-06  0.489E-04    1.21      15.0  T
     SCC iter.                  ...        0 min,  0.993 sec
     gradient                   ...        0 min,  0.313 sec
 * total energy  :  -340.2833871 Eh     change       -0.3949408E-01 Eh
   gradient norm :     0.0595346 Eh/α   predicted    -0.4254866E-01 (   7.73%)
   displ. norm   :     0.8282878 α      lambda       -0.3612693E-01
   maximum displ.:     0.4946182 α      in ANC's #21, #15, #25, ...

........................................................................
.............................. CYCLE   12 ..............................
........................................................................
   1   -345.6570465 -0.345657E+03  0.180E-01    1.22       0.0  T
   2   -345.6568989  0.147567E-03  0.123E-01    1.24       1.0  T
   3   -345.6522322  0.466678E-02  0.113E-01    1.22       1.0  T
   4   -345.6571411 -0.490890E-02  0.310E-02    1.23       1.0  T
   5   -345.6572795 -0.138425E-03  0.178E-02    1.24       1.0  T
   6   -345.6572613  0.181953E-04  0.120E-02    1.24       1.0  T
   7   -345.6572874 -0.261310E-04  0.523E-03    1.24       1.4  T
   8   -345.6572941 -0.665782E-05  0.201E-03    1.24       3.7  T
   9   -345.6572944 -0.318314E-06  0.135E-03    1.24       5.5  T
  10   -345.6572946 -0.184806E-06  0.804E-04    1.24       9.1  T
  11   -345.6572946 -0.323621E-07  0.530E-04    1.24      13.9  T
     SCC iter.                  ...        0 min,  0.993 sec
     gradient                   ...        0 min,  0.313 sec
 * total energy  :  -340.3153482 Eh     change       -0.3196109E-01 Eh
   gradient norm :     0.0490982 Eh/α   predicted    -0.3045609E-01 (  -4.71%)
   displ. norm   :     0.8706298 α      lambda       -0.3242902E-01
   maximum displ.:     0.5403119 α      in ANC's #21, #15, #25, ...

........................................................................
.............................. CYCLE   13 ..............................
........................................................................
   1   -345.7385698 -0.345739E+03  0.153E-01    1.23       0.0  T
   2   -345.7385344  0.354188E-04  0.100E-01    1.23       1.0  T
   3   -345.7361953  0.233908E-02  0.784E-02    1.23       1.0  T
   4   -345.7385843 -0.238904E-02  0.222E-02    1.23       1.0  T
   5   -345.7386621 -0.777456E-04  0.135E-02    1.23       1.0  T
   6   -345.7386586  0.350028E-05  0.791E-03    1.23       1.0  T
   7   -345.7386678 -0.923390E-05  0.317E-03    1.23       2.3  T
   8   -345.7386704 -0.254979E-05  0.132E-03    1.23       5.6  T
   9   -345.7386706 -0.182643E-06  0.886E-04    1.23       8.3  T
  10   -345.7386706 -0.724753E-07  0.549E-04    1.23      13.4  T
     SCC iter.                  ...        0 min,  0.902 sec
     gradient                   ...        0 min,  0.313 sec
 * total energy  :  -340.3444333 Eh     change       -0.2908516E-01 Eh
   gradient norm :     0.0448901 Eh/α   predicted    -0.2850504E-01 (  -1.99%)
   displ. norm   :     0.9112455 α      lambda       -0.2869553E-01
   maximum displ.:     0.5507838 α      in ANC's #21, #15, #25, ...

........................................................................
.............................. CYCLE   14 ..............................
........................................................................
   1   -345.7929933 -0.345793E+03  0.124E-01    1.22       0.0  T
   2   -345.7928947  0.985932E-04  0.858E-02    1.22       1.0  T
   3   -345.7906282  0.226654E-02  0.807E-02    1.22       1.0  T
   4   -345.7930530 -0.242481E-02  0.176E-02    1.22       1.0  T
   5   -345.7930995 -0.465039E-04  0.109E-02    1.22       1.0  T
   6   -345.7930921  0.739725E-05  0.816E-03    1.22       1.0  T
   7   -345.7931055 -0.133624E-04  0.269E-03    1.22       2.7  T
   8   -345.7931070 -0.150164E-05  0.122E-03    1.22       6.0  T
   9   -345.7931071 -0.157187E-06  0.892E-04    1.22       8.2  T
  10   -345.7931072 -0.105861E-06  0.515E-04    1.22      14.3  T
     SCC iter.                  ...        0 min,  0.903 sec
     gradient                   ...        0 min,  0.315 sec
 * total energy  :  -340.3707813 Eh     change       -0.2634799E-01 Eh
   gradient norm :     0.0428663 Eh/α   predicted    -0.2626171E-01 (  -0.33%)
   displ. norm   :     0.9296818 α      lambda       -0.2674370E-01
   maximum displ.:     0.5467536 α      in ANC's #21, #15, #25, ...

........................................................................
.............................. CYCLE   15 ..............................
........................................................................
   1   -345.8315792 -0.345832E+03  0.116E-01    1.21       0.0  T
   2   -345.8315077  0.714478E-04  0.802E-02    1.21       1.0  T
   3   -345.8300453  0.146241E-02  0.723E-02    1.21       1.0  T
   4   -345.8316230 -0.157770E-02  0.182E-02    1.21       1.0  T
   5   -345.8316913 -0.682662E-04  0.975E-03    1.21       1.0  T
   6   -345.8316892  0.214697E-05  0.727E-03    1.21       1.0  T
   7   -345.8316964 -0.725574E-05  0.288E-03    1.21       2.6  T
   8   -345.8316983 -0.184390E-05  0.108E-03    1.21       6.8  T
   9   -345.8316984 -0.994839E-07  0.784E-04    1.21       9.4  T
  10   -345.8316984 -0.895718E-07  0.496E-04    1.21      14.8  T
     SCC iter.                  ...        0 min,  0.901 sec
     gradient                   ...        0 min,  0.314 sec
 * total energy  :  -340.3949677 Eh     change       -0.2418639E-01 Eh
   gradient norm :     0.0374195 Eh/α   predicted    -0.2492925E-01 (   3.07%)
   displ. norm   :     0.9313015 α      lambda       -0.2456303E-01
   maximum displ.:     0.5462316 α      in ANC's #15, #21, #25, ...

........................................................................
.............................. CYCLE   16 ..............................
........................................................................
   1   -345.8776413 -0.345878E+03  0.123E-01    1.17       0.0  T
   2   -345.8776368  0.449984E-05  0.802E-02    1.17       1.0  T
   3   -345.8765738  0.106297E-02  0.627E-02    1.17       1.0  T
   4   -345.8776569 -0.108307E-02  0.176E-02    1.17       1.0  T
   5   -345.8777151 -0.581830E-04  0.974E-03    1.17       1.0  T
   6   -345.8777151 -0.648892E-07  0.682E-03    1.17       1.1  T
   7   -345.8777205 -0.534724E-05  0.277E-03    1.17       2.7  T
   8   -345.8777222 -0.174577E-05  0.102E-03    1.17       7.2  T
   9   -345.8777223 -0.113009E-06  0.656E-04    1.17      11.2  T
  10   -345.8777224 -0.473845E-07  0.437E-04    1.17      16.8  T
     SCC iter.                  ...        0 min,  0.902 sec
     gradient                   ...        0 min,  0.314 sec
 * total energy  :  -340.4167423 Eh     change       -0.2177455E-01 Eh
   gradient norm :     0.0320168 Eh/α   predicted    -0.2293355E-01 (   5.32%)
   displ. norm   :     0.9347270 α      lambda       -0.2239885E-01
   maximum displ.:     0.5333779 α      in ANC's #15, #21, #25, ...

........................................................................
.............................. CYCLE   17 ..............................
........................................................................
   1   -345.9085899 -0.345909E+03  0.145E-01    1.15       0.0  T
   2   -345.9085317  0.582194E-04  0.953E-02    1.15       1.0  T
   3   -345.9061859  0.234575E-02  0.827E-02    1.15       1.0  T
   4   -345.9086212 -0.243529E-02  0.195E-02    1.15       1.0  T
   5   -345.9086910 -0.698067E-04  0.119E-02    1.15       1.0  T
   6   -345.9086905  0.512846E-06  0.859E-03    1.15       1.0  T
   7   -345.9087010 -0.104646E-04  0.287E-03    1.15       2.6  T
   8   -345.9087025 -0.153059E-05  0.116E-03    1.15       6.4  T
   9   -345.9087026 -0.138429E-06  0.726E-04    1.15      10.1  T
  10   -345.9087027 -0.307784E-07  0.546E-04    1.15      13.5  T
     SCC iter.                  ...        0 min,  0.901 sec
     gradient                   ...        0 min,  0.314 sec
 * total energy  :  -340.4359990 Eh     change       -0.1925669E-01 Eh
   gradient norm :     0.0378009 Eh/α   predicted    -0.2098456E-01 (   8.97%)
   displ. norm   :     0.9157402 α      lambda       -0.2112919E-01
   maximum displ.:     0.5207642 α      in ANC's #15, #21, #25, ...

........................................................................
.............................. CYCLE   18 ..............................
........................................................................
   1   -345.9241183 -0.345924E+03  0.144E-01    1.16       0.0  T
   2   -345.9240214  0.969228E-04  0.989E-02    1.16       1.0  T
   3   -345.9218204  0.220099E-02  0.891E-02    1.16       1.0  T
   4   -345.9241973 -0.237686E-02  0.225E-02    1.16       1.0  T
   5   -345.9242796 -0.823158E-04  0.138E-02    1.16       1.0  T
   6   -345.9242822 -0.258865E-05  0.991E-03    1.16       1.0  T
   7   -345.9242967 -0.145557E-04  0.359E-03    1.16       2.0  T
   8   -345.9242991 -0.239185E-05  0.160E-03    1.16       4.6  T
   9   -345.9242995 -0.389564E-06  0.923E-04    1.16       8.0  T
  10   -345.9242996 -0.436477E-07  0.695E-04    1.16      10.6  T
     SCC iter.                  ...        0 min,  0.903 sec
     gradient                   ...        0 min,  0.328 sec
 * total energy  :  -340.4537866 Eh     change       -0.1778761E-01 Eh
   gradient norm :     0.0428532 Eh/α   predicted    -0.1942386E-01 (   9.20%)
   displ. norm   :     0.8872721 α      lambda       -0.1932520E-01
   maximum displ.:     0.5294349 α      in ANC's #15, #21, #25, ...

........................................................................
.............................. CYCLE   19 ..............................
........................................................................
   1   -345.9606166 -0.345961E+03  0.119E-01    1.13       0.0  T
   2   -345.9605392  0.773433E-04  0.858E-02    1.14       1.0  T
   3   -345.9595436  0.995623E-03  0.759E-02    1.13       1.0  T
   4   -345.9606930 -0.114935E-02  0.193E-02    1.13       1.0  T
   5   -345.9607473 -0.543753E-04  0.123E-02    1.14       1.0  T
   6   -345.9607495 -0.213326E-05  0.817E-03    1.14       1.0  T
   7   -345.9607594 -0.993441E-05  0.282E-03    1.14       2.6  T
   8   -345.9607621 -0.272493E-05  0.132E-03    1.13       5.6  T
   9   -345.9607625 -0.368214E-06  0.707E-04    1.13      10.4  T
  10   -345.9607625 -0.338750E-07  0.420E-04    1.13      17.5  T
     SCC iter.                  ...        0 min,  0.903 sec
     gradient                   ...        0 min,  0.314 sec
 * total energy  :  -340.4705166 Eh     change       -0.1673005E-01 Eh
   gradient norm :     0.0365866 Eh/α   predicted    -0.1726949E-01 (   3.22%)
   displ. norm   :     0.9068766 α      lambda       -0.1763777E-01
   maximum displ.:     0.5194706 α      in ANC's #15, #21, #25, ...

........................................................................
.............................. CYCLE   20 ..............................
........................................................................
   1   -345.9967898 -0.345997E+03  0.133E-01    1.13       0.0  T
   2   -345.9967683  0.215377E-04  0.917E-02    1.12       1.0  T
   3   -345.9953461  0.142211E-02  0.774E-02    1.13       1.0  T
   4   -345.9968215 -0.147535E-02  0.217E-02    1.13       1.0  T
   5   -345.9968786 -0.571313E-04  0.141E-02    1.12       1.0  T
   6   -345.9968749  0.376259E-05  0.961E-03    1.13       1.0  T
   7   -345.9968962 -0.212967E-04  0.295E-03    1.13       2.5  T
   8   -345.9968984 -0.221180E-05  0.127E-03    1.12       5.8  T
   9   -345.9968985 -0.170310E-06  0.782E-04    1.13       9.4  T
  10   -345.9968986 -0.385403E-07  0.517E-04    1.13      14.2  T
     SCC iter.                  ...        0 min,  0.903 sec
     gradient                   ...        0 min,  0.314 sec
 * total energy  :  -340.4862048 Eh     change       -0.1568821E-01 Eh
   gradient norm :     0.0269531 Eh/α   predicted    -0.1607175E-01 (   2.44%)
   displ. norm   :     0.9290335 α      lambda       -0.1577036E-01
   maximum displ.:     0.5453324 α      in ANC's #15, #25, #21, ...
 * RMSD in coord.:     1.0026541 α      energy gain  -0.1251090E+01 Eh

generating ANC from model Hessian ...
Using Lindh-Hessian (1995)
 Shifting diagonal of input Hessian by    1.0004745301842678E-002
 Lowest  eigenvalues of input Hessian
    0.010000    0.010001    0.010002    0.010003    0.010003    0.010005
    0.000000    0.000000    0.000000    0.000000    0.000000    0.000000
    0.010007    0.010007    0.010008    0.010009    0.010028    0.010074
 Highest eigenvalues
    2.118529    2.119374    2.501889    2.515374    2.554240    2.557266


........................................................................
.............................. CYCLE   21 ..............................
........................................................................
   1   -346.0173081 -0.346017E+03  0.124E-01    1.12       0.0  T
   2   -346.0172737  0.343949E-04  0.820E-02    1.12       1.0  T
   3   -346.0156142  0.165950E-02  0.675E-02    1.12       1.0  T
   4   -346.0173454 -0.173120E-02  0.165E-02    1.12       1.0  T
   5   -346.0173712 -0.257962E-04  0.116E-02    1.12       1.0  T
   6   -346.0173759 -0.473358E-05  0.731E-03    1.12       1.0  T
   7   -346.0173837 -0.781049E-05  0.280E-03    1.12       2.6  T
   8   -346.0173851 -0.142556E-05  0.134E-03    1.12       5.5  T
   9   -346.0173855 -0.347725E-06  0.592E-04    1.12      12.4  T
  10   -346.0173855 -0.953776E-09  0.423E-04    1.12      17.4  T
     SCC iter.                  ...        0 min,  0.902 sec
     gradient                   ...        0 min,  0.315 sec
 * total energy  :  -340.5006183 Eh     change       -0.1441345E-01 Eh
   gradient norm :     0.0216046 Eh/α   predicted     0.0000000E+00 (-100.00%)
   displ. norm   :     0.6609690 α      lambda       -0.1015174E-01
   maximum displ.:     0.4537569 α      in ANC's #26, #37, #16, ...

........................................................................
.............................. CYCLE   22 ..............................
........................................................................
   1   -346.0415292 -0.346042E+03  0.867E-02    1.12       0.0  T
   2   -346.0415241  0.508309E-05  0.551E-02    1.12       1.0  T
   3   -346.0410941  0.430041E-03  0.349E-02    1.12       1.0  T
   4   -346.0415356 -0.441505E-03  0.910E-03    1.12       1.0  T
   5   -346.0415398 -0.419593E-05  0.705E-03    1.12       1.0  T
   6   -346.0415440 -0.416369E-05  0.390E-03    1.12       1.9  T
   7   -346.0415472 -0.320532E-05  0.127E-03    1.12       5.8  T
   8   -346.0415474 -0.233271E-06  0.638E-04    1.12      11.5  T
   9   -346.0415474 -0.377666E-07  0.347E-04    1.12      21.2  T
     SCC iter.                  ...        0 min,  0.814 sec
     gradient                   ...        0 min,  0.314 sec
 * total energy  :  -340.5103228 Eh     change       -0.9704468E-02 Eh
   gradient norm :     0.0162123 Eh/α   predicted    -0.7293427E-02 ( -24.84%)
   displ. norm   :     0.8976621 α      lambda       -0.1267440E-01
   maximum displ.:     0.5919285 α      in ANC's #26, #37, #16, ...

........................................................................
.............................. CYCLE   23 ..............................
........................................................................
   1   -346.0677125 -0.346068E+03  0.115E-01    1.12       0.0  T
   2   -346.0677048  0.767858E-05  0.737E-02    1.11       1.0  T
   3   -346.0669519  0.752914E-03  0.466E-02    1.12       1.0  T
   4   -346.0677252 -0.773283E-03  0.126E-02    1.11       1.0  T
   5   -346.0677293 -0.410985E-05  0.100E-02    1.11       1.0  T
   6   -346.0677414 -0.120673E-04  0.502E-03    1.12       1.5  T
   7   -346.0677463 -0.493816E-05  0.182E-03    1.11       4.0  T
   8   -346.0677468 -0.463157E-06  0.936E-04    1.11       7.9  T
   9   -346.0677469 -0.100064E-06  0.473E-04    1.11      15.6  T
     SCC iter.                  ...        0 min,  0.813 sec
     gradient                   ...        0 min,  0.315 sec
 * total energy  :  -340.5223348 Eh     change       -0.1201199E-01 Eh
   gradient norm :     0.0137879 Eh/α   predicted    -0.1144370E-01 (  -4.73%)
   displ. norm   :     0.9187314 α      lambda       -0.1175781E-01
   maximum displ.:     0.6209116 α      in ANC's #26, #37, #16, ...

........................................................................
.............................. CYCLE   24 ..............................
........................................................................
   1   -346.0898998 -0.346090E+03  0.114E-01    1.11       0.0  T
   2   -346.0898973  0.243203E-05  0.727E-02    1.11       1.0  T
   3   -346.0893123  0.584984E-03  0.414E-02    1.11       1.0  T
   4   -346.0899102 -0.597836E-03  0.125E-02    1.11       1.0  T
   5   -346.0899157 -0.554973E-05  0.963E-03    1.11       1.0  T
   6   -346.0899247 -0.897067E-05  0.498E-03    1.11       1.5  T
   7   -346.0899303 -0.555230E-05  0.169E-03    1.11       4.3  T
   8   -346.0899306 -0.382642E-06  0.941E-04    1.11       7.8  T
   9   -346.0899308 -0.124954E-06  0.435E-04    1.11      16.9  T
     SCC iter.                  ...        0 min,  0.813 sec
     gradient                   ...        0 min,  0.315 sec
 * total energy  :  -340.5334982 Eh     change       -0.1116341E-01 Eh
   gradient norm :     0.0133605 Eh/α   predicted    -0.1084115E-01 (  -2.89%)
   displ. norm   :     0.9173170 α      lambda       -0.1071938E-01
   maximum displ.:     0.6340910 α      in ANC's #26, #16, #37, ...

........................................................................
.............................. CYCLE   25 ..............................
........................................................................
   1   -346.1122691 -0.346112E+03  0.110E-01    1.10       0.0  T
   2   -346.1122701 -0.958363E-06  0.695E-02    1.10       1.0  T
   3   -346.1118565  0.413549E-03  0.353E-02    1.10       1.0  T
   4   -346.1122773 -0.420746E-03  0.119E-02    1.10       1.0  T
   5   -346.1122828 -0.551160E-05  0.894E-03    1.10       1.0  T
   6   -346.1122884 -0.559506E-05  0.475E-03    1.10       1.5  T
   7   -346.1122942 -0.584393E-05  0.143E-03    1.10       5.1  T
   8   -346.1122945 -0.253393E-06  0.874E-04    1.10       8.4  T
   9   -346.1122946 -0.123726E-06  0.381E-04    1.10      19.3  T
     SCC iter.                  ...        0 min,  0.814 sec
     gradient                   ...        0 min,  0.316 sec
 * total energy  :  -340.5436888 Eh     change       -0.1019061E-01 Eh
   gradient norm :     0.0121958 Eh/α   predicted    -0.9869755E-02 (  -3.15%)
   displ. norm   :     0.9122727 α      lambda       -0.9762401E-02
   maximum displ.:     0.6422798 α      in ANC's #26, #16, #23, ...

........................................................................
.............................. CYCLE   26 ..............................
........................................................................
   1   -346.1343315 -0.346134E+03  0.105E-01    1.09       0.0  T
   2   -346.1343353 -0.382018E-05  0.664E-02    1.09       1.0  T
   3   -346.1340645  0.270784E-03  0.296E-02    1.09       1.0  T
   4   -346.1343395 -0.274941E-03  0.113E-02    1.09       1.0  T
   5   -346.1343438 -0.430086E-05  0.828E-03    1.09       1.0  T
   6   -346.1343469 -0.314704E-05  0.450E-03    1.09       1.6  T
   7   -346.1343529 -0.601337E-05  0.123E-03    1.09       6.0  T
   8   -346.1343531 -0.181699E-06  0.809E-04    1.09       9.1  T
   9   -346.1343532 -0.119046E-06  0.341E-04    1.09      21.6  T
     SCC iter.                  ...        0 min,  0.813 sec
     gradient                   ...        0 min,  0.316 sec
 * total energy  :  -340.5529764 Eh     change       -0.9287604E-02 Eh
   gradient norm :     0.0107796 Eh/α   predicted    -0.8943535E-02 (  -3.70%)
   displ. norm   :     0.9097759 α      lambda       -0.8932910E-02
   maximum displ.:     0.6471052 α      in ANC's #26, #16, #23, ...

........................................................................
.............................. CYCLE   27 ..............................
........................................................................
   1   -346.1561537 -0.346156E+03  0.103E-01    1.08       0.0  T
   2   -346.1561585 -0.481680E-05  0.644E-02    1.08       1.0  T
   3   -346.1559744  0.184021E-03  0.256E-02    1.08       1.0  T
   4   -346.1561637 -0.189265E-03  0.105E-02    1.08       1.0  T
   5   -346.1561656 -0.188603E-05  0.746E-03    1.08       1.0  T
   6   -346.1561668 -0.123385E-05  0.398E-03    1.08       1.8  T
   7   -346.1561719 -0.507373E-05  0.106E-03    1.08       6.9  T
   8   -346.1561721 -0.165551E-06  0.689E-04    1.08      10.7  T
   9   -346.1561722 -0.903926E-07  0.307E-04    1.08      23.9  T
     SCC iter.                  ...        0 min,  0.813 sec
     gradient                   ...        0 min,  0.317 sec
 * total energy  :  -340.5614694 Eh     change       -0.8493056E-02 Eh
   gradient norm :     0.0097959 Eh/α   predicted    -0.8163304E-02 (  -3.88%)
   displ. norm   :     0.9068390 α      lambda       -0.8200182E-02
   maximum displ.:     0.6511278 α      in ANC's #26, #16, #23, ...

........................................................................
.............................. CYCLE   28 ..............................
........................................................................
   1   -346.1768557 -0.346177E+03  0.101E-01    1.07       0.0  T
   2   -346.1768607 -0.506198E-05  0.629E-02    1.07       1.0  T
   3   -346.1767181  0.142594E-03  0.233E-02    1.08       1.0  T
   4   -346.1768668 -0.148683E-03  0.977E-03    1.07       1.0  T
   5   -346.1768684 -0.162594E-05  0.670E-03    1.07       1.1  T
   6   -346.1768692 -0.741865E-06  0.331E-03    1.07       2.2  T
   7   -346.1768720 -0.283412E-05  0.100E-03    1.07       7.3  T
   8   -346.1768722 -0.172695E-06  0.487E-04    1.07      15.1  T
   9   -346.1768722 -0.241001E-07  0.280E-04    1.07      26.3  T
     SCC iter.                  ...        0 min,  0.815 sec
     gradient                   ...        0 min,  0.317 sec
 * total energy  :  -340.5692498 Eh     change       -0.7780357E-02 Eh
   gradient norm :     0.0091530 Eh/α   predicted    -0.7471852E-02 (  -3.97%)
   displ. norm   :     0.9069061 α      lambda       -0.7552243E-02
   maximum displ.:     0.6529231 α      in ANC's #26, #16, #23, ...

........................................................................
.............................. CYCLE   29 ..............................
........................................................................
   1   -346.1961429 -0.346196E+03  0.987E-02    1.06       0.0  T
   2   -346.1961477 -0.477821E-05  0.614E-02    1.06       1.0  T
   3   -346.1960200  0.127739E-03  0.222E-02    1.07       1.0  T
   4   -346.1961538 -0.133837E-03  0.933E-03    1.06       1.0  T
   5   -346.1961553 -0.146762E-05  0.629E-03    1.06       1.2  T
   6   -346.1961561 -0.778818E-06  0.305E-03    1.06       2.4  T
   7   -346.1961580 -0.190997E-05  0.106E-03    1.06       6.9  T
   8   -346.1961581 -0.178579E-06  0.448E-04    1.06      16.4  T
   9   -346.1961582 -0.194254E-07  0.278E-04    1.06      26.4  T
     SCC iter.                  ...        0 min,  0.814 sec
     gradient                   ...        0 min,  0.317 sec
 * total energy  :  -340.5764220 Eh     change       -0.7172248E-02 Eh
   gradient norm :     0.0084718 Eh/α   predicted    -0.6881903E-02 (  -4.05%)
   displ. norm   :     0.9056138 α      lambda       -0.6912841E-02
   maximum displ.:     0.6562730 α      in ANC's #26, #16, #23, ...

........................................................................
.............................. CYCLE   30 ..............................
........................................................................
   1   -346.2147550 -0.346215E+03  0.953E-02    1.06       0.0  T
   2   -346.2147592 -0.428530E-05  0.593E-02    1.05       1.0  T
   3   -346.2146432  0.116007E-03  0.212E-02    1.06       1.0  T
   4   -346.2147650 -0.121774E-03  0.893E-03    1.05       1.0  T
   5   -346.2147662 -0.118763E-05  0.585E-03    1.06       1.3  T
   6   -346.2147671 -0.879482E-06  0.254E-03    1.06       2.9  T
   7   -346.2147685 -0.140594E-05  0.108E-03    1.06       6.8  T
   8   -346.2147687 -0.235450E-06  0.393E-04    1.06      18.7  T
   9   -346.2147687 -0.916623E-08  0.245E-04    1.06      30.1  T
     SCC iter.                  ...        0 min,  0.814 sec
     gradient                   ...        0 min,  0.318 sec
 * total energy  :  -340.5830113 Eh     change       -0.6589303E-02 Eh
   gradient norm :     0.0076313 Eh/α   predicted    -0.6291157E-02 (  -4.52%)
   displ. norm   :     0.9079752 α      lambda       -0.6344115E-02
   maximum displ.:     0.6600985 α      in ANC's #26, #16, #23, ...

........................................................................
.............................. CYCLE   31 ..............................
........................................................................
   1   -346.2323260 -0.346232E+03  0.936E-02    1.05       0.0  T
   2   -346.2323301 -0.412287E-05  0.583E-02    1.05       1.0  T
   3   -346.2322196  0.110465E-03  0.207E-02    1.05       1.0  T
   4   -346.2323357 -0.116048E-03  0.882E-03    1.05       1.0  T
   5   -346.2323370 -0.127528E-05  0.564E-03    1.05       1.3  T
   6   -346.2323380 -0.103267E-05  0.209E-03    1.05       3.5  T
   7   -346.2323388 -0.834429E-06  0.112E-03    1.05       6.6  T
   8   -346.2323391 -0.312095E-06  0.373E-04    1.05      19.7  T
   9   -346.2323392 -0.777402E-08  0.228E-04    1.05      32.2  T
     SCC iter.                  ...        0 min,  0.811 sec
     gradient                   ...        0 min,  0.319 sec
 * total energy  :  -340.5890583 Eh     change       -0.6047011E-02 Eh
   gradient norm :     0.0068839 Eh/α   predicted    -0.5787161E-02 (  -4.30%)
   displ. norm   :     0.9104100 α      lambda       -0.5804901E-02
   maximum displ.:     0.6643534 α      in ANC's #26, #16, #23, ...

........................................................................
.............................. CYCLE   32 ..............................
........................................................................
   1   -346.2490910 -0.346249E+03  0.931E-02    1.04       0.0  T
   2   -346.2490951 -0.405569E-05  0.580E-02    1.04       1.0  T
   3   -346.2489883  0.106736E-03  0.205E-02    1.04       1.0  T
   4   -346.2491004 -0.112054E-03  0.883E-03    1.04       1.0  T
   5   -346.2491017 -0.131764E-05  0.558E-03    1.04       1.3  T
   6   -346.2491028 -0.108117E-05  0.187E-03    1.04       3.9  T
   7   -346.2491034 -0.652666E-06  0.108E-03    1.04       6.8  T
   8   -346.2491038 -0.364565E-06  0.372E-04    1.04      19.7  T
   9   -346.2491038 -0.121115E-07  0.225E-04    1.04      32.7  T
     SCC iter.                  ...        0 min,  0.813 sec
     gradient                   ...        0 min,  0.318 sec
 * total energy  :  -340.5945741 Eh     change       -0.5515722E-02 Eh
   gradient norm :     0.0061521 Eh/α   predicted    -0.5308159E-02 (  -3.76%)
   displ. norm   :     0.9131387 α      lambda       -0.5273152E-02
   maximum displ.:     0.6689077 α      in ANC's #26, #16, #23, ...

........................................................................
.............................. CYCLE   33 ..............................
........................................................................
   1   -346.2649505 -0.346265E+03  0.928E-02    1.03       0.0  T
   2   -346.2649546 -0.412725E-05  0.580E-02    1.03       1.0  T
   3   -346.2648492  0.105334E-03  0.205E-02    1.03       1.0  T
   4   -346.2649597 -0.110455E-03  0.895E-03    1.03       1.0  T
   5   -346.2649611 -0.143448E-05  0.564E-03    1.03       1.3  T
   6   -346.2649623 -0.116175E-05  0.182E-03    1.03       4.0  T
   7   -346.2649629 -0.587769E-06  0.106E-03    1.03       7.0  T
   8   -346.2649632 -0.343470E-06  0.376E-04    1.03      19.6  T
   9   -346.2649632 -0.156053E-07  0.220E-04    1.03      33.5  T
     SCC iter.                  ...        0 min,  0.814 sec
     gradient                   ...        0 min,  0.319 sec
 * total energy  :  -340.5995601 Eh     change       -0.4986062E-02 Eh
   gradient norm :     0.0055367 Eh/α   predicted    -0.4835020E-02 (  -3.03%)
   displ. norm   :     0.9158066 α      lambda       -0.4743389E-02
   maximum displ.:     0.6729510 α      in ANC's #26, #16, #23, ...

........................................................................
.............................. CYCLE   34 ..............................
........................................................................
   1   -346.2799128 -0.346280E+03  0.929E-02    1.02       0.0  T
   2   -346.2799171 -0.422295E-05  0.581E-02    1.02       1.0  T
   3   -346.2798133  0.103792E-03  0.205E-02    1.02       1.0  T
   4   -346.2799219 -0.108673E-03  0.908E-03    1.02       1.0  T
   5   -346.2799234 -0.148307E-05  0.573E-03    1.02       1.3  T
   6   -346.2799245 -0.108710E-05  0.193E-03    1.02       3.8  T
   7   -346.2799253 -0.768296E-06  0.105E-03    1.02       7.0  T
   8   -346.2799256 -0.340236E-06  0.390E-04    1.02      18.8  T
   9   -346.2799256 -0.223938E-07  0.223E-04    1.02      32.9  T
     SCC iter.                  ...        0 min,  0.813 sec
     gradient                   ...        0 min,  0.319 sec
 * total energy  :  -340.6040134 Eh     change       -0.4453287E-02 Eh
   gradient norm :     0.0050162 Eh/α   predicted    -0.4360844E-02 (  -2.08%)
   displ. norm   :     0.9165046 α      lambda       -0.4207607E-02
   maximum displ.:     0.6764145 α      in ANC's #26, #16, #23, ...

........................................................................
.............................. CYCLE   35 ..............................
........................................................................
   1   -346.2943172 -0.346294E+03  0.928E-02    1.01       0.0  T
   2   -346.2943214 -0.423224E-05  0.581E-02    1.01       1.0  T
   3   -346.2942199  0.101472E-03  0.204E-02    1.02       1.0  T
   4   -346.2943261 -0.106177E-03  0.915E-03    1.01       1.0  T
   5   -346.2943276 -0.148269E-05  0.577E-03    1.01       1.3  T
   6   -346.2943288 -0.124754E-05  0.189E-03    1.01       3.9  T
   7   -346.2943295 -0.698974E-06  0.996E-04    1.01       7.4  T
   8   -346.2943298 -0.279790E-06  0.381E-04    1.01      19.3  T
     SCC iter.                  ...        0 min,  0.724 sec
     gradient                   ...        0 min,  0.320 sec
 * total energy  :  -340.6079261 Eh     change       -0.3912639E-02 Eh
   gradient norm :     0.0046150 Eh/α   predicted    -0.3870967E-02 (  -1.07%)
   displ. norm   :     0.9174264 α      lambda       -0.3679998E-02
   maximum displ.:     0.6787751 α      in ANC's #26, #16, #23, ...

........................................................................
.............................. CYCLE   36 ..............................
........................................................................
   1   -346.3077399 -0.346308E+03  0.930E-02    1.01       0.0  T
   2   -346.3077442 -0.429008E-05  0.583E-02    1.01       1.0  T
   3   -346.3076459  0.982014E-04  0.203E-02    1.01       1.0  T
   4   -346.3077487 -0.102788E-03  0.922E-03    1.01       1.0  T
   5   -346.3077501 -0.131446E-05  0.582E-03    1.01       1.3  T
   6   -346.3077513 -0.125332E-05  0.199E-03    1.01       3.7  T
   7   -346.3077521 -0.828541E-06  0.975E-04    1.01       7.5  T
   8   -346.3077524 -0.259851E-06  0.384E-04    1.01      19.1  T
     SCC iter.                  ...        0 min,  0.722 sec
     gradient                   ...        0 min,  0.320 sec
 * total energy  :  -340.6113059 Eh     change       -0.3379877E-02 Eh
   gradient norm :     0.0043062 Eh/α   predicted    -0.3388673E-02 (   0.26%)
   displ. norm   :     0.9074427 α      lambda       -0.3117865E-02
   maximum displ.:     0.6732273 α      in ANC's #26, #16, #23, ...

........................................................................
.............................. CYCLE   37 ..............................
........................................................................
   1   -346.3209522 -0.346321E+03  0.914E-02    1.00       0.0  T
   2   -346.3209563 -0.413399E-05  0.573E-02    1.00       1.0  T
   3   -346.3208645  0.918492E-04  0.198E-02    1.00       1.0  T
   4   -346.3209606 -0.961602E-04  0.911E-03    1.00       1.0  T
   5   -346.3209620 -0.137312E-05  0.565E-03    1.00       1.3  T
   6   -346.3209635 -0.145341E-05  0.161E-03    1.00       4.6  T
   7   -346.3209639 -0.410881E-06  0.908E-04    1.00       8.1  T
   8   -346.3209641 -0.222009E-06  0.384E-04    1.00      19.1  T
     SCC iter.                  ...        0 min,  0.724 sec
     gradient                   ...        0 min,  0.320 sec
 * total energy  :  -340.6141326 Eh     change       -0.2826694E-02 Eh
   gradient norm :     0.0039680 Eh/α   predicted    -0.2842639E-02 (   0.56%)
   displ. norm   :     0.8910522 α      lambda       -0.2555474E-02
   maximum displ.:     0.6596665 α      in ANC's #26, #16, #23, ...

........................................................................
.............................. CYCLE   38 ..............................
........................................................................
   1   -346.3331939 -0.346333E+03  0.890E-02    0.99       0.0  T
   2   -346.3331978 -0.388836E-05  0.559E-02    0.99       1.0  T
   3   -346.3331105  0.873326E-04  0.193E-02    0.99       1.0  T
   4   -346.3332017 -0.912351E-04  0.896E-03    0.99       1.0  T
   5   -346.3332025 -0.725243E-06  0.564E-03    0.99       1.3  T
   6   -346.3332035 -0.107269E-05  0.210E-03    0.99       3.5  T
   7   -346.3332049 -0.140066E-05  0.916E-04    0.99       8.0  T
   8   -346.3332052 -0.263474E-06  0.377E-04    0.99      19.5  T
   9   -346.3332052 -0.214706E-07  0.203E-04    0.99      36.2  T
     SCC iter.                  ...        0 min,  0.813 sec
     gradient                   ...        0 min,  0.320 sec
 * total energy  :  -340.6164170 Eh     change       -0.2284354E-02 Eh
   gradient norm :     0.0035961 Eh/α   predicted    -0.2292227E-02 (   0.34%)
   displ. norm   :     0.8690265 α      lambda       -0.2020624E-02
   maximum displ.:     0.6426107 α      in ANC's #26, #16, #23, ...

........................................................................
.............................. CYCLE   39 ..............................
........................................................................
   1   -346.3453487 -0.346345E+03  0.859E-02    0.99       0.0  T
   2   -346.3453523 -0.359638E-05  0.540E-02    0.99       1.0  T
   3   -346.3452715  0.807167E-04  0.186E-02    0.99       1.0  T
   4   -346.3453557 -0.841581E-04  0.871E-03    0.99       1.0  T
   5   -346.3453566 -0.855038E-06  0.541E-03    0.99       1.4  T
   6   -346.3453578 -0.129120E-05  0.188E-03    0.99       3.9  T
   7   -346.3453589 -0.103367E-05  0.836E-04    0.99       8.8  T
   8   -346.3453591 -0.182290E-06  0.341E-04    0.99      21.6  T
   9   -346.3453591 -0.110486E-07  0.187E-04    0.99      39.3  T
     SCC iter.                  ...        0 min,  0.815 sec
     gradient                   ...        0 min,  0.320 sec
 * total energy  :  -340.6181829 Eh     change       -0.1765937E-02 Eh
   gradient norm :     0.0036291 Eh/α   predicted    -0.1773315E-02 (   0.42%)
   displ. norm   :     0.8386960 α      lambda       -0.1532260E-02
   maximum displ.:     0.6178575 α      in ANC's #26, #16, #23, ...

........................................................................
.............................. CYCLE   40 ..............................
........................................................................
   1   -346.3559112 -0.346356E+03  0.829E-02    0.98       0.0  T
   2   -346.3559145 -0.336092E-05  0.521E-02    0.98       1.0  T
   3   -346.3558407  0.738056E-04  0.178E-02    0.98       1.0  T
   4   -346.3559176 -0.768795E-04  0.840E-03    0.98       1.0  T
   5   -346.3559181 -0.494378E-06  0.530E-03    0.98       1.4  T
   6   -346.3559193 -0.117863E-05  0.204E-03    0.98       3.6  T
   7   -346.3559206 -0.135273E-05  0.764E-04    0.98       9.6  T
   8   -346.3559208 -0.145196E-06  0.346E-04    0.98      21.3  T
   9   -346.3559208 -0.154219E-07  0.196E-04    0.98      37.6  T
     SCC iter.                  ...        0 min,  0.813 sec
     gradient                   ...        0 min,  0.322 sec
 * total energy  :  -340.6194634 Eh     change       -0.1280498E-02 Eh
   gradient norm :     0.0041057 Eh/α   predicted    -0.1305035E-02 (   1.92%)
   displ. norm   :     0.7917528 α      lambda       -0.1096138E-02
   maximum displ.:     0.5806811 α      in ANC's #26, #16, #15, ...

........................................................................
.............................. CYCLE   41 ..............................
........................................................................
   1   -346.3665337 -0.346367E+03  0.785E-02    0.98       0.0  T
   2   -346.3665367 -0.294412E-05  0.492E-02    0.98       1.0  T
   3   -346.3664702  0.664188E-04  0.167E-02    0.98       1.0  T
   4   -346.3665389 -0.686404E-04  0.796E-03    0.98       1.0  T
   5   -346.3665388  0.100777E-06  0.522E-03    0.98       1.4  T
   6   -346.3665402 -0.140260E-05  0.240E-03    0.98       3.1  T
   7   -346.3665421 -0.194641E-05  0.652E-04    0.98      11.3  T
   8   -346.3665422 -0.737274E-07  0.317E-04    0.98      23.2  T
   9   -346.3665422 -0.867544E-08  0.187E-04    0.98      39.4  T
     SCC iter.                  ...        0 min,  0.812 sec
     gradient                   ...        0 min,  0.322 sec
 * total energy  :  -340.6203121 Eh     change       -0.8487108E-03 Eh
   gradient norm :     0.0042544 Eh/α   predicted    -0.8916385E-03 (   5.06%)
   displ. norm   :     0.7048637 α      lambda       -0.6738263E-03
   maximum displ.:     0.5153142 α      in ANC's #26, #16, #15, ...

........................................................................
.............................. CYCLE   42 ..............................
........................................................................
   1   -346.3748740 -0.346375E+03  0.697E-02    0.97       0.0  T
   2   -346.3748763 -0.235356E-05  0.437E-02    0.97       1.0  T
   3   -346.3748277  0.486070E-04  0.145E-02    0.97       1.0  T
   4   -346.3748780 -0.503016E-04  0.702E-03    0.97       1.0  T
   5   -346.3748779  0.168476E-06  0.457E-03    0.97       1.6  T
   6   -346.3748789 -0.102791E-05  0.208E-03    0.97       3.5  T
   7   -346.3748804 -0.155172E-05  0.557E-04    0.97      13.2  T
   8   -346.3748805 -0.536641E-07  0.289E-04    0.97      25.4  T
   9   -346.3748805 -0.887599E-08  0.175E-04    0.97      42.1  T
     SCC iter.                  ...        0 min,  0.813 sec
     gradient                   ...        0 min,  0.321 sec
 * total energy  :  -340.6207975 Eh     change       -0.4853806E-03 Eh
   gradient norm :     0.0033023 Eh/α   predicted    -0.5043053E-03 (   3.90%)
   displ. norm   :     0.5621005 α      lambda       -0.3227982E-03
   maximum displ.:     0.4076965 α      in ANC's #26, #16, #15, ...
 * RMSD in coord.:     1.3584615 α      energy gain  -0.1345927E+00 Eh

generating ANC from model Hessian ...
Using Lindh-Hessian (1995)
 Shifting diagonal of input Hessian by    1.0058768392160976E-002
 Lowest  eigenvalues of input Hessian
    0.010000    0.010009    0.010020    0.010036    0.010041    0.010048
    0.010052    0.010054    0.000000    0.000000    0.000000    0.000000
    0.000000    0.000000    0.010067    0.010074    0.010111    0.010148
 Highest eigenvalues
    2.157088    2.158081    2.674326    2.676842    2.677513    2.680531


........................................................................
.............................. CYCLE   43 ..............................
........................................................................
   1   -346.3825449 -0.346383E+03  0.551E-02    0.97       0.0  T
   2   -346.3825464 -0.156543E-05  0.345E-02    0.97       1.0  T
   3   -346.3825184  0.279800E-04  0.112E-02    0.97       1.0  T
   4   -346.3825475 -0.290362E-04  0.549E-03    0.97       1.3  T
   5   -346.3825476 -0.162896E-06  0.349E-03    0.97       2.1  T
   6   -346.3825482 -0.588130E-06  0.142E-03    0.97       5.2  T
   7   -346.3825489 -0.668642E-06  0.451E-04    0.97      16.3  T
   8   -346.3825489 -0.393275E-07  0.217E-04    0.97      33.8  T
     SCC iter.                  ...        0 min,  0.722 sec
     gradient                   ...        0 min,  0.321 sec
 * total energy  :  -340.6210016 Eh     change       -0.2040682E-03 Eh
   gradient norm :     0.0035193 Eh/α   predicted     0.0000000E+00 (-100.00%)
   displ. norm   :     0.0634343 α      lambda       -0.7069739E-04
   maximum displ.:     0.0463745 α      in ANC's #21, #22, #3, ...

........................................................................
.............................. CYCLE   44 ..............................
........................................................................
   1   -346.3834078 -0.346383E+03  0.830E-03    0.97       0.0  T
   2   -346.3834079 -0.964473E-07  0.501E-03    0.97       1.5  T
   3   -346.3834069  0.971837E-06  0.194E-03    0.97       3.8  T
   4   -346.3834079 -0.952063E-06  0.618E-04    0.97      11.9  T
   5   -346.3834080 -0.975561E-07  0.296E-04    0.97      24.9  T
     SCC iter.                  ...        0 min,  0.454 sec
     gradient                   ...        0 min,  0.322 sec
 * total energy  :  -340.6210608 Eh     change       -0.5917923E-04 Eh
   gradient norm :     0.0012528 Eh/α   predicted    -0.3550562E-04 ( -40.00%)
   displ. norm   :     0.2601824 α      lambda       -0.1267435E-03
   maximum displ.:     0.1774964 α      in ANC's #21, #22, #3, ...

........................................................................
.............................. CYCLE   45 ..............................
........................................................................
   1   -346.3849653 -0.346385E+03  0.288E-02    0.97       0.0  T
   2   -346.3849661 -0.716494E-06  0.171E-02    0.97       1.0  T
   3   -346.3849616  0.443579E-05  0.464E-03    0.97       1.6  T
   4   -346.3849662 -0.461520E-05  0.158E-03    0.97       4.7  T
   5   -346.3849665 -0.294607E-06  0.942E-04    0.97       7.8  T
   6   -346.3849665 -0.254778E-08  0.560E-04    0.97      13.1  T
     SCC iter.                  ...        0 min,  0.544 sec
     gradient                   ...        0 min,  0.322 sec
 * total energy  :  -340.6211947 Eh     change       -0.1339779E-03 Eh
   gradient norm :     0.0046836 Eh/α   predicted    -0.6528319E-04 ( -51.27%)
   displ. norm   :     0.1785786 α      lambda       -0.1032885E-03
   maximum displ.:     0.1160116 α      in ANC's #21, #22, #3, ...

........................................................................
.............................. CYCLE   46 ..............................
........................................................................
   1   -346.3847825 -0.346385E+03  0.196E-02    0.97       0.0  T
   2   -346.3847826 -0.154367E-06  0.117E-02    0.97       1.0  T
   3   -346.3847817  0.950759E-06  0.204E-03    0.97       3.6  T
   4   -346.3847827 -0.982395E-06  0.919E-04    0.97       8.0  T
   5   -346.3847827 -0.624603E-07  0.577E-04    0.97      12.7  T
     SCC iter.                  ...        0 min,  0.456 sec
     gradient                   ...        0 min,  0.322 sec
[...]
 385:  3.00 386: 44.29 387: 13.22 388:316.00 389:  0.36 390:  6.15 391:  0.23 392:  0.60
 393:  0.01 394:  5.29 395:  4.99 396:****** 397:  0.27 398: 20.46 399:  0.06 400:  0.37
 401:  9.29 402:  0.72 403:  0.83 404:  0.25 405:  1.58 406:  0.04 407:  0.05 408:  0.11
 409:  2.53 410:  0.59 411:  5.79 412:  5.13 413:122.39 414:  0.23 415:  1.96 416:  0.06
 417: 21.36 418: 37.98 419:  7.12 420:  1.71 421:  1.32 422:  1.64 423:  1.40 424: 12.12
 425:  0.99 426:  0.21 427: 13.59 428:  5.36 429:200.53 430:  0.52 431:  1.82 432:  3.84
 433:  4.69 434: 14.29 435: 19.10 436:  1.82 437: 11.59 438:  0.68 439: 76.03 440:  0.46
 441:  1.93 442:  5.90 443:245.47 444:130.04 445:  9.25 446:  0.07 447: 31.08 448: 11.76
 449:166.98 450:  0.18 451:280.83 452:  0.09 453:  3.05 454:  0.11 455:  1.70 456:  0.19
 457:  0.24 458:  0.22 459: 63.80 460:  0.23 461:  5.59 462: 12.74 463: 20.69 464:  0.06
 465:  1.15 466:  0.16 467:  0.04 468:  0.13 469:  0.04 470:  0.34 471:  0.64 472: 21.54
 473:  3.21 474: 19.27 475: 65.54 476:  0.84 477:397.32 478:  5.07 479:  5.05 480:  6.88
 481:  0.04 482: 22.89 483: 41.37 484:  3.45 485:  0.08 486:  5.50 487:  4.28 488: 26.37
 489: 21.08 490:957.13 491:  0.49 492: 12.58 493: 17.84 494: 62.87 495:  1.42 496:  0.40
 497:  0.48 498:  0.17 499:  0.22 500:  0.01 501:  7.54 502:  4.44 503:  6.27 504:731.50
 505:****** 506:****** 507:****** 508:****** 509: 68.12 510:455.01 511: 84.62 512:860.26
 513: 33.24 514: 60.51 515:203.90 516:595.83 517:141.76 518:209.08 519:250.56 520:818.74
 521:446.06 522:162.73 523:216.53 524: 22.47 525: 22.93 526:  0.99 527:  0.09 528:  0.68
 529:  0.74 530: 47.67 531: 58.89 532:  1.09 533: 32.28 534:  7.41 535:  0.32 536: 54.03
 537: 32.30 538:116.84 539: 77.47 540: 13.30 541:  9.47 542: 65.89 543: 39.88 544: 47.39
 545: 36.05 546:  4.95 547:249.00 548: 75.59 549: 26.42 550: 46.43 551:  9.58 552:  9.84
 553:  1.01 554: 77.50 555: 32.57
 Raman intensities (amu)
   1:  0.00   2:  0.00   3:  0.00   4:  0.00   5:  0.00   6:  0.00   7:  0.00   8:  0.00
   9:  0.00  10:  0.00  11:  0.00  12:  0.00  13:  0.00  14:  0.00  15:  0.00  16:  0.00
  17:  0.00  18:  0.00  19:  0.00  20:  0.00  21:  0.00  22:  0.00  23:  0.00  24:  0.00
  25:  0.00  26:  0.00  27:  0.00  28:  0.00  29:  0.00  30:  0.00  31:  0.00  32:  0.00
  33:  0.00  34:  0.00  35:  0.00  36:  0.00  37:  0.00  38:  0.00  39:  0.00  40:  0.00
  41:  0.00  42:  0.00  43:  0.00  44:  0.00  45:  0.00  46:  0.00  47:  0.00  48:  0.00
  49:  0.00  50:  0.00  51:  0.00  52:  0.00  53:  0.00  54:  0.00  55:  0.00  56:  0.00
  57:  0.00  58:  0.00  59:  0.00  60:  0.00  61:  0.00  62:  0.00  63:  0.00  64:  0.00
  65:  0.00  66:  0.00  67:  0.00  68:  0.00  69:  0.00  70:  0.00  71:  0.00  72:  0.00
  73:  0.00  74:  0.00  75:  0.00  76:  0.00  77:  0.00  78:  0.00  79:  0.00  80:  0.00
  81:  0.00  82:  0.00  83:  0.00  84:  0.00  85:  0.00  86:  0.00  87:  0.00  88:  0.00
  89:  0.00  90:  0.00  91:  0.00  92:  0.00  93:  0.00  94:  0.00  95:  0.00  96:  0.00
  97:  0.00  98:  0.00  99:  0.00 100:  0.00 101:  0.00 102:  0.00 103:  0.00 104:  0.00
 105:  0.00 106:  0.00 107:  0.00 108:  0.00 109:  0.00 110:  0.00 111:  0.00 112:  0.00
 113:  0.00 114:  0.00 115:  0.00 116:  0.00 117:  0.00 118:  0.00 119:  0.00 120:  0.00
 121:  0.00 122:  0.00 123:  0.00 124:  0.00 125:  0.00 126:  0.00 127:  0.00 128:  0.00
 129:  0.00 130:  0.00 131:  0.00 132:  0.00 133:  0.00 134:  0.00 135:  0.00 136:  0.00
 137:  0.00 138:  0.00 139:  0.00 140:  0.00 141:  0.00 142:  0.00 143:  0.00 144:  0.00
 145:  0.00 146:  0.00 147:  0.00 148:  0.00 149:  0.00 150:  0.00 151:  0.00 152:  0.00
 153:  0.00 154:  0.00 155:  0.00 156:  0.00 157:  0.00 158:  0.00 159:  0.00 160:  0.00
 161:  0.00 162:  0.00 163:  0.00 164:  0.00 165:  0.00 166:  0.00 167:  0.00 168:  0.00
 169:  0.00 170:  0.00 171:  0.00 172:  0.00 173:  0.00 174:  0.00 175:  0.00 176:  0.00
 177:  0.00 178:  0.00 179:  0.00 180:  0.00 181:  0.00 182:  0.00 183:  0.00 184:  0.00
 185:  0.00 186:  0.00 187:  0.00 188:  0.00 189:  0.00 190:  0.00 191:  0.00 192:  0.00
 193:  0.00 194:  0.00 195:  0.00 196:  0.00 197:  0.00 198:  0.00 199:  0.00 200:  0.00
 201:  0.00 202:  0.00 203:  0.00 204:  0.00 205:  0.00 206:  0.00 207:  0.00 208:  0.00
 209:  0.00 210:  0.00 211:  0.00 212:  0.00 213:  0.00 214:  0.00 215:  0.00 216:  0.00
 217:  0.00 218:  0.00 219:  0.00 220:  0.00 221:  0.00 222:  0.00 223:  0.00 224:  0.00
 225:  0.00 226:  0.00 227:  0.00 228:  0.00 229:  0.00 230:  0.00 231:  0.00 232:  0.00
 233:  0.00 234:  0.00 235:  0.00 236:  0.00 237:  0.00 238:  0.00 239:  0.00 240:  0.00
 241:  0.00 242:  0.00 243:  0.00 244:  0.00 245:  0.00 246:  0.00 247:  0.00 248:  0.00
 249:  0.00 250:  0.00 251:  0.00 252:  0.00 253:  0.00 254:  0.00 255:  0.00 256:  0.00
 257:  0.00 258:  0.00 259:  0.00 260:  0.00 261:  0.00 262:  0.00 263:  0.00 264:  0.00
 265:  0.00 266:  0.00 267:  0.00 268:  0.00 269:  0.00 270:  0.00 271:  0.00 272:  0.00
 273:  0.00 274:  0.00 275:  0.00 276:  0.00 277:  0.00 278:  0.00 279:  0.00 280:  0.00
 281:  0.00 282:  0.00 283:  0.00 284:  0.00 285:  0.00 286:  0.00 287:  0.00 288:  0.00
 289:  0.00 290:  0.00 291:  0.00 292:  0.00 293:  0.00 294:  0.00 295:  0.00 296:  0.00
 297:  0.00 298:  0.00 299:  0.00 300:  0.00 301:  0.00 302:  0.00 303:  0.00 304:  0.00
 305:  0.00 306:  0.00 307:  0.00 308:  0.00 309:  0.00 310:  0.00 311:  0.00 312:  0.00
 313:  0.00 314:  0.00 315:  0.00 316:  0.00 317:  0.00 318:  0.00 319:  0.00 320:  0.00
 321:  0.00 322:  0.00 323:  0.00 324:  0.00 325:  0.00 326:  0.00 327:  0.00 328:  0.00
 329:  0.00 330:  0.00 331:  0.00 332:  0.00 333:  0.00 334:  0.00 335:  0.00 336:  0.00
 337:  0.00 338:  0.00 339:  0.00 340:  0.00 341:  0.00 342:  0.00 343:  0.00 344:  0.00
 345:  0.00 346:  0.00 347:  0.00 348:  0.00 349:  0.00 350:  0.00 351:  0.00 352:  0.00
 353:  0.00 354:  0.00 355:  0.00 356:  0.00 357:  0.00 358:  0.00 359:  0.00 360:  0.00
 361:  0.00 362:  0.00 363:  0.00 364:  0.00 365:  0.00 366:  0.00 367:  0.00 368:  0.00
 369:  0.00 370:  0.00 371:  0.00 372:  0.00 373:  0.00 374:  0.00 375:  0.00 376:  0.00
 377:  0.00 378:  0.00 379:  0.00 380:  0.00 381:  0.00 382:  0.00 383:  0.00 384:  0.00
 385:  0.00 386:  0.00 387:  0.00 388:  0.00 389:  0.00 390:  0.00 391:  0.00 392:  0.00
 393:  0.00 394:  0.00 395:  0.00 396:  0.00 397:  0.00 398:  0.00 399:  0.00 400:  0.00
 401:  0.00 402:  0.00 403:  0.00 404:  0.00 405:  0.00 406:  0.00 407:  0.00 408:  0.00
 409:  0.00 410:  0.00 411:  0.00 412:  0.00 413:  0.00 414:  0.00 415:  0.00 416:  0.00
 417:  0.00 418:  0.00 419:  0.00 420:  0.00 421:  0.00 422:  0.00 423:  0.00 424:  0.00
 425:  0.00 426:  0.00 427:  0.00 428:  0.00 429:  0.00 430:  0.00 431:  0.00 432:  0.00
 433:  0.00 434:  0.00 435:  0.00 436:  0.00 437:  0.00 438:  0.00 439:  0.00 440:  0.00
 441:  0.00 442:  0.00 443:  0.00 444:  0.00 445:  0.00 446:  0.00 447:  0.00 448:  0.00
 449:  0.00 450:  0.00 451:  0.00 452:  0.00 453:  0.00 454:  0.00 455:  0.00 456:  0.00
 457:  0.00 458:  0.00 459:  0.00 460:  0.00 461:  0.00 462:  0.00 463:  0.00 464:  0.00
 465:  0.00 466:  0.00 467:  0.00 468:  0.00 469:  0.00 470:  0.00 471:  0.00 472:  0.00
 473:  0.00 474:  0.00 475:  0.00 476:  0.00 477:  0.00 478:  0.00 479:  0.00 480:  0.00
 481:  0.00 482:  0.00 483:  0.00 484:  0.00 485:  0.00 486:  0.00 487:  0.00 488:  0.00
 489:  0.00 490:  0.00 491:  0.00 492:  0.00 493:  0.00 494:  0.00 495:  0.00 496:  0.00
 497:  0.00 498:  0.00 499:  0.00 500:  0.00 501:  0.00 502:  0.00 503:  0.00 504:  0.00
 505:  0.00 506:  0.00 507:  0.00 508:  0.00 509:  0.00 510:  0.00 511:  0.00 512:  0.00
 513:  0.00 514:  0.00 515:  0.00 516:  0.00 517:  0.00 518:  0.00 519:  0.00 520:  0.00
 521:  0.00 522:  0.00 523:  0.00 524:  0.00 525:  0.00 526:  0.00 527:  0.00 528:  0.00
 529:  0.00 530:  0.00 531:  0.00 532:  0.00 533:  0.00 534:  0.00 535:  0.00 536:  0.00
 537:  0.00 538:  0.00 539:  0.00 540:  0.00 541:  0.00 542:  0.00 543:  0.00 544:  0.00
 545:  0.00 546:  0.00 547:  0.00 548:  0.00 549:  0.00 550:  0.00 551:  0.00 552:  0.00
 553:  0.00 554:  0.00 555:  0.00
 output can be read by thermo (or use thermo option).
 writing <g98.out> molden fake output.
 recommended (thermochemical) frequency scaling factor: 1.0
Refinement of some symmetry elements was terminated before convergence was reached.
Some symmetry elements may remain unidentified.
Molecule has no symmetry elements
It seems to be the C1 point group
           -------------------------------------------------
          |             Thermodynamic Functions             |
           -------------------------------------------------

c1  symmetry found (for desy threshold:  0.10E+00) used in thermo
 inverting freq            1   3.6576322778221328     
 inverting freq            2   3.4395166696385626     
 inverting freq            3   2.5533512450517337     
 inverting freq            4   2.4036389100753897     

          ...................................................
          :                      SETUP                      :
          :.................................................:
          :  # frequencies                         549      :
          :  # imaginary freq.                       0      :
          :  linear?                             false      :
          :  only rotor calc.                    false      :
          :  symmetry                               c1      :
          :  rotational number                       1      :
          :  scaling factor                  1.0000000      :
          :  rotor cutoff                   50.0000000 cm⁻¹ :
          :  imag. cutoff                  -20.0000000 cm⁻¹ :
          :.................................................:

    mode    ω/cm⁻¹     T·S(HO)/kcal·mol⁻¹    T·S(FR)/kcal·mol⁻¹   T·S(vib)
   ------------------------------------------------------------------------
       1      3.66    -2.98434 (  0.00%)    -1.83128 (100.00%)    -1.83131
       2      3.44    -3.02077 (  0.00%)    -1.84949 (100.00%)    -1.84952
       3      2.55    -3.19728 (  0.00%)    -1.93775 (100.00%)    -1.93776
       4      2.40    -3.23308 (  0.00%)    -1.95565 (100.00%)    -1.95566
       5      2.77    -3.14864 (  0.00%)    -1.91343 (100.00%)    -1.91344
       6      4.99    -2.80075 (  0.01%)    -1.73948 ( 99.99%)    -1.73959
       7      7.03    -2.59720 (  0.04%)    -1.63770 ( 99.96%)    -1.63808
       8      8.11    -2.51268 (  0.07%)    -1.59544 ( 99.93%)    -1.59607
       9      9.51    -2.41797 (  0.13%)    -1.54807 ( 99.87%)    -1.54921
      10     13.26    -2.22122 (  0.49%)    -1.44968 ( 99.51%)    -1.45348
      11     14.27    -2.17769 (  0.66%)    -1.42790 ( 99.34%)    -1.43285
      12     17.08    -2.07148 (  1.34%)    -1.37477 ( 98.66%)    -1.38413
      13     19.50    -1.99295 (  2.26%)    -1.33548 ( 97.74%)    -1.35035
      14     21.69    -1.92990 (  3.42%)    -1.30393 ( 96.58%)    -1.32535
      15     22.57    -1.90655 (  3.98%)    -1.29225 ( 96.02%)    -1.31671
      16     25.87    -1.82558 (  6.69%)    -1.25171 ( 93.31%)    -1.29011
      17     27.86    -1.78189 (  8.79%)    -1.22984 ( 91.21%)    -1.27835
      18     29.37    -1.75069 ( 10.63%)    -1.21421 ( 89.37%)    -1.27125
      19     30.49    -1.72843 ( 12.15%)    -1.20306 ( 87.85%)    -1.26690
      20     31.78    -1.70387 ( 14.04%)    -1.19076 ( 85.96%)    -1.26279
      21     35.91    -1.63173 ( 21.01%)    -1.15461 ( 78.99%)    -1.25487
      22     42.59    -1.53089 ( 34.50%)    -1.10404 ( 65.50%)    -1.25129
      23     45.23    -1.49544 ( 40.11%)    -1.08625 ( 59.89%)    -1.25036
      24     51.64    -1.41730 ( 53.22%)    -1.04700 ( 46.78%)    -1.24407
      25     54.60    -1.38444 ( 58.71%)    -1.03048 ( 41.29%)    -1.23829
      26     57.36    -1.35537 ( 63.40%)    -1.01586 ( 36.60%)    -1.23111
      27     63.70    -1.29371 ( 72.49%)    -0.98481 ( 27.51%)    -1.20872
      28     64.43    -1.28698 ( 73.39%)    -0.98142 ( 26.61%)    -1.20567
      29     67.95    -1.25580 ( 77.33%)    -0.96569 ( 22.67%)    -1.19002
      30     70.36    -1.23532 ( 79.68%)    -0.95536 ( 20.32%)    -1.17843
      31     72.23    -1.21991 ( 81.33%)    -0.94758 ( 18.67%)    -1.16906
      32     79.00    -1.16739 ( 86.18%)    -0.92103 ( 13.82%)    -1.13333
      33     98.61    -1.03806 ( 93.80%)    -0.85537 (  6.20%)    -1.02673
      34     99.90    -1.03048 ( 94.10%)    -0.85151 (  5.90%)    -1.01991
      35    100.88    -1.02483 ( 94.31%)    -0.84862 (  5.69%)    -1.01480
      36    102.83    -1.01368 ( 94.71%)    -0.84294 (  5.29%)    -1.00464
      37    105.88    -0.99677 ( 95.26%)    -0.83430 (  4.74%)    -0.98907
      38    110.16    -0.97380 ( 95.93%)    -0.82255 (  4.07%)    -0.96764
      39    111.38    -0.96743 ( 96.10%)    -0.81929 (  3.90%)    -0.96165
      40    120.44    -0.92227 ( 97.12%)    -0.79612 (  2.88%)    -0.91863
      41    122.00    -0.91484 ( 97.26%)    -0.79230 (  2.74%)    -0.91148
      42    123.51    -0.90778 ( 97.38%)    -0.78866 (  2.62%)    -0.90467
      43    124.46    -0.90336 ( 97.46%)    -0.78638 (  2.54%)    -0.90039
      44    124.60    -0.90274 ( 97.47%)    -0.78607 (  2.53%)    -0.89979
      45    129.03    -0.88268 ( 97.79%)    -0.77572 (  2.21%)    -0.88032
      46    132.21    -0.86869 ( 98.00%)    -0.76849 (  2.00%)    -0.86668
      47    136.19    -0.85175 ( 98.22%)    -0.75972 (  1.78%)    -0.85011
      48    140.95    -0.83210 ( 98.44%)    -0.74952 (  1.56%)    -0.83081
      49    147.35    -0.80684 ( 98.69%)    -0.73638 (  1.31%)    -0.80592
      50    177.06    -0.70338 ( 99.37%)    -0.68195 (  0.63%)    -0.70324
      51    177.14    -0.70313 ( 99.37%)    -0.68183 (  0.63%)    -0.70300
      52    177.89    -0.70080 ( 99.38%)    -0.68058 (  0.62%)    -0.70067
      53    178.32    -0.69944 ( 99.39%)    -0.67986 (  0.61%)    -0.69932
      54    179.13    -0.69693 ( 99.40%)    -0.67853 (  0.60%)    -0.69682
      55    184.91    -0.67926 ( 99.47%)    -0.66911 (  0.53%)    -0.67920
      56    203.85    -0.62554 ( 99.64%)    -0.64023 (  0.36%)    -0.62559
      57    206.54    -0.61838 ( 99.66%)    -0.63634 (  0.34%)    -0.61845
      58    212.30    -0.60339 ( 99.69%)    -0.62819 (  0.31%)    -0.60347
      59    216.97    -0.59161 ( 99.72%)    -0.62175 (  0.28%)    -0.59169
      60    217.50    -0.59028 ( 99.72%)    -0.62102 (  0.28%)    -0.59037
      61    223.50    -0.57560 ( 99.75%)    -0.61297 (  0.25%)    -0.57570
      62    223.92    -0.57458 ( 99.75%)    -0.61240 (  0.25%)    -0.57467
      63    226.42    -0.56862 ( 99.76%)    -0.60912 (  0.24%)    -0.56871
      64    227.17    -0.56683 ( 99.77%)    -0.60813 (  0.23%)    -0.56693
      65    227.40    -0.56629 ( 99.77%)    -0.60783 (  0.23%)    -0.56638
      66    232.21    -0.55509 ( 99.79%)    -0.60163 (  0.21%)    -0.55519
      67    232.26    -0.55497 ( 99.79%)    -0.60157 (  0.21%)    -0.55507
      68    233.10    -0.55305 ( 99.79%)    -0.60050 (  0.21%)    -0.55315
      69    236.09    -0.54625 ( 99.80%)    -0.59672 (  0.20%)    -0.54635
      70    236.37    -0.54562 ( 99.80%)    -0.59637 (  0.20%)    -0.54572
      71    238.19    -0.54155 ( 99.81%)    -0.59411 (  0.19%)    -0.54166
      72    238.21    -0.54151 ( 99.81%)    -0.59408 (  0.19%)    -0.54161
      73    238.54    -0.54077 ( 99.81%)    -0.59367 (  0.19%)    -0.54087
      74    238.73    -0.54035 ( 99.81%)    -0.59344 (  0.19%)    -0.54045
      75    240.48    -0.53648 ( 99.81%)    -0.59127 (  0.19%)    -0.53658
      76    243.70    -0.52943 ( 99.82%)    -0.58733 (  0.18%)    -0.52953
      77    246.49    -0.52342 ( 99.83%)    -0.58396 (  0.17%)    -0.52352
      78    246.66    -0.52305 ( 99.83%)    -0.58375 (  0.17%)    -0.52315
      79    247.01    -0.52231 ( 99.83%)    -0.58334 (  0.17%)    -0.52241
      80    248.02    -0.52015 ( 99.84%)    -0.58212 (  0.16%)    -0.52025
      81    249.36    -0.51733 ( 99.84%)    -0.58053 (  0.16%)    -0.51743
      82    251.12    -0.51363 ( 99.84%)    -0.57845 (  0.16%)    -0.51373
      83    261.15    -0.49316 ( 99.87%)    -0.56684 (  0.13%)    -0.49326
      84    271.15    -0.47372 ( 99.88%)    -0.55571 (  0.12%)    -0.47381
      85    271.51    -0.47304 ( 99.89%)    -0.55532 (  0.11%)    -0.47313
      86    272.03    -0.47205 ( 99.89%)    -0.55475 (  0.11%)    -0.47214
      87    272.33    -0.47148 ( 99.89%)    -0.55442 (  0.11%)    -0.47158
      88    272.48    -0.47120 ( 99.89%)    -0.55426 (  0.11%)    -0.47129
      89    272.92    -0.47037 ( 99.89%)    -0.55378 (  0.11%)    -0.47046
      90    273.28    -0.46969 ( 99.89%)    -0.55339 (  0.11%)    -0.46979
      91    273.39    -0.46949 ( 99.89%)    -0.55327 (  0.11%)    -0.46958
      92    274.30    -0.46779 ( 99.89%)    -0.55229 (  0.11%)    -0.46788
      93    274.82    -0.46681 ( 99.89%)    -0.55172 (  0.11%)    -0.46690
      94    277.93    -0.46105 ( 99.90%)    -0.54839 (  0.10%)    -0.46114
      95    280.68    -0.45602 ( 99.90%)    -0.54547 (  0.10%)    -0.45611
      96    282.91    -0.45199 ( 99.90%)    -0.54313 (  0.10%)    -0.45208
      97    285.13    -0.44803 ( 99.91%)    -0.54082 (  0.09%)    -0.44812
      98    286.70    -0.44525 ( 99.91%)    -0.53919 (  0.09%)    -0.44534
   ------------------------------------------------------------------------

   temp. (K)  partition function   enthalpy   heat capacity  entropy
                                   cal/mol     cal/K/mol   cal/K/mol   J/K/mol
 298.15  VIB  0.299E+55            63520.409    415.457    401.416
         ROT  0.337E+10              888.752      2.981     46.576
         INT  0.101E+65            64409.161    418.438    447.992
         TR   0.816E+29             1481.254      4.968     48.509
         TOT                       65890.4154   423.4064   496.5004  2077.3576

       T/K    H(0)-H(T)+PV         H(T)/Eh          T*S/Eh         G(T)/Eh
   ------------------------------------------------------------------------
    298.15    0.105003E+00    0.139248E+01    0.235903E+00    0.115657E+01
   ------------------------------------------------------------------------

         :::::::::::::::::::::::::::::::::::::::::::::::::::::
         ::                  THERMODYNAMIC                  ::
         :::::::::::::::::::::::::::::::::::::::::::::::::::::
         :: total free energy        -339.467786123766 Eh   ::
         ::.................................................::
         :: total energy             -340.624359304904 Eh   ::
         :: zero point energy           1.287473476968 Eh   ::
         :: G(RRHO) w/o ZPVE           -0.130900295830 Eh   ::
         :: G(RRHO) contrib.            1.156573181138 Eh   ::
         :::::::::::::::::::::::::::::::::::::::::::::::::::::

optimized geometry written to: xtbopt.xyz


           -------------------------------------------------
          | TOTAL ENERGY             -340.624359304904 Eh   |
          | TOTAL ENTHALPY           -339.231882767292 Eh   |
          | TOTAL FREE ENERGY        -339.467786123766 Eh   |
          | GRADIENT NORM               0.000322688910 Eh/α |
          | HOMO-LUMO GAP               0.994299971063 eV   |
           -------------------------------------------------

------------------------------------------------------------------------
 * finished run on 2021/11/19 at 15:50:19.634     
------------------------------------------------------------------------
 total:
 * wall-time:     0 d,  0 h, 26 min, 53.684 sec
 *  cpu-time:     0 d,  0 h, 26 min, 53.683 sec
 * ratio c/w:     1.000 speedup
 SCF:
 * wall-time:     0 d,  0 h,  0 min,  9.996 sec
 *  cpu-time:     0 d,  0 h,  0 min,  9.996 sec
 * ratio c/w:     1.000 speedup
 ANC optimizer:
 * wall-time:     0 d,  0 h,  2 min, 42.011 sec
 *  cpu-time:     0 d,  0 h,  2 min, 41.995 sec
 * ratio c/w:     1.000 speedup
 analytical hessian:
 * wall-time:     0 d,  0 h, 16 min, 37.754 sec
 *  cpu-time:     0 d,  0 h, 16 min, 37.764 sec
 * ratio c/w:     1.000 speedup

