185
 energy: -340.624359303495 gnorm: 0.000322339759 xtb: 6.4.1 (bd6e46d)
Ni       34.10648677939335    0.02116300140700    0.00844909651444
C        36.60642077037907   -2.85643099101603    1.83556570962039
C        37.55663981779660   -2.02062897228306    1.35971870909946
C        36.86830825631269   -0.97499281166015    0.66404738111743
C        37.53250128362316    0.07140518799189    0.01893433110443
C        36.84170842674146    1.11541443621189   -0.60108195204555
C        37.50297928588756    2.20809394468474   -1.24889957290399
C        36.53235920392254    3.04732531081070   -1.67484270578560
C        35.28441869050375    2.45364454275784   -1.29832790758782
N        35.48868797815255    1.26541924213225   -0.64952562709552
C        34.06240090848497    3.03267750957408   -1.57186520479539
C        32.85702715383707    2.43704183553851   -1.26325736883649
C        31.58713541848919    3.02335668380123   -1.58279814093084
C        30.64463212822103    2.14055323781201   -1.18747594736553
C        31.34249858868473    1.02223863766897   -0.62037271379611
N        32.69297373595138    1.21910249397489   -0.66684753515195
C        30.70106045847757   -0.08849716518118   -0.11116711981950
C        31.37402568868859   -1.14465505391292    0.46855362069933
C        30.70918952534409   -2.28694742970270    1.02760721877172
C        31.67281351828662   -3.07927860982756    1.54494591575593
C        32.92269673341194   -2.42121795060808    1.29364640952801
N        32.72648814550114   -1.24419324779624    0.62885254387095
C        34.13954305059453   -2.93155055992643    1.69599980006101
C        35.34450470958242   -2.31598654202270    1.42686804509509
N        35.51944399197147   -1.15498331042141    0.72224679293591
H        36.72580014337358   -3.75576234086054    2.40787575285969
H        38.62190758580448   -2.07707774604110    1.46899335080259
H        38.56620827153655    2.29469054967722   -1.35753661991031
H        36.62905442757666    3.97787447606954   -2.19956725315650
H        34.04982750512188    3.99149069435424   -2.06720548586332
H        31.46223504980956    3.98013715674510   -2.05181759826280
H        29.57681274822632    2.21526499695444   -1.25916655535763
H        29.62358788982160   -0.12707446224386   -0.15675529564132
H        29.64665726585032   -2.43491068748472    1.01699147642883
H        31.57428006563043   -4.02056809198636    2.05024139616956
H        34.15134869386274   -3.86328565534367    2.24060667141544
Ni       77.59651785465782    0.03654898176838   -0.00223633938965
C        75.11216221622736    3.03933731550663    1.63499891438459
C        74.15733108365876    2.17839786848915    1.21678445620774
C        74.83940174077644    1.08678376474619    0.58896004216773
C        74.16867795692595    0.00829439833473    0.00645008436548
C        74.85396870136204   -1.06728175236741   -0.56398336099780
C        74.18695740953309   -2.18256368445255   -1.16572648932375
C        75.15330216963503   -3.04149852715732   -1.56094846354298
C        76.40436071121165   -2.43971160949320   -1.20841989796648
N        76.20638748452140   -1.22533414754123   -0.60781622140290
C        77.62255505257652   -3.04009895534261   -1.45134127047195
C        78.83169326474005   -2.44833389948132   -1.15030063077960
C        80.09773521564206   -3.06662452012724   -1.42126703696741
C        81.04676883460627   -2.18442995000376   -1.04054886305542
C        80.35644452422152   -1.03257372442928   -0.53457043079043
N        79.00405957845703   -1.20994756710357   -0.60024623060235
C        81.00602701992885    0.09138245209922   -0.06645641312398
C        80.33898781017403    1.18888504904667    0.43840234609704
C        81.01106025284241    2.35424217020560    0.93803166901499
C        80.05023579923088    3.19311606666175    1.38190886667910
C        78.79519807147172    2.53811228658824    1.14879551992769
N        78.98541717928563    1.31818156575832    0.56450570706056
C        77.57964822723469    3.08749105209570    1.50021640278626
C        76.37095055205415    2.46603357013437    1.26312438067655
N        76.18941006573533    1.26304561198912    0.63483302242447
H        74.99801855156453    3.97491727623564    2.14708545389284
H        73.09252705848554    2.24715899115653    1.32325215521202
H        73.12317171714542   -2.26898460348271   -1.26900480831817
H        75.05187753506360   -3.99146856094270   -2.04865780879987
H        77.62880697036834   -4.01738895059893   -1.90928133121330
H        80.21613735306683   -4.04320982907457   -1.84937994187696
H        82.11442701204004   -2.27910598548175   -1.08675174093075
H        82.08472495459331    0.11043181988089   -0.09057017192244
H        82.07586036791373    2.48537900565853    0.94012179870452
H        80.15396160215988    4.16362256895675    1.82732522465461
H        77.57239564335262    4.05299846232825    1.98248947123080
C        38.93452736493534    0.07879534487505    0.00512935245656
C        40.14666558109362    0.07538306254878   -0.00849323888824
C        49.80560720941697    0.02862302370618   -0.03221798345671
C        51.01842272117359    0.02628064837758   -0.02436459879092
C        60.67583056852323    0.04136922704212   -0.02211227630333
C        61.88863606118574    0.03824055595078   -0.02960724432256
C        71.55396597687022    0.00564858596748   -0.00884019933797
C        72.76628668965979    0.00415431246727   -0.00053593895066
Ni       44.97571519827737    0.04809494592155   -0.04632797398519
C        42.50091217547329   -3.35685524302524    0.27770709277120
C        41.54447890012917   -2.41403764210505    0.11871208335363
C        42.22124133113685   -1.15350681566804    0.05812582527096
C        41.54814115403662    0.06868014009748   -0.02254323732103
C        42.23455152705738    1.28199312167675   -0.12017531335076
C        41.57220122843524    2.54992775568661   -0.18254349353319
C        42.53667288763454    3.47919797469126   -0.37004510515804
C        43.78158381946125    2.77288974964252   -0.41160802746391
N        43.58356000713054    1.43014858709523   -0.23113895661240
C        44.99172363728199    3.38581682931767   -0.66262138643554
C        46.19563890038434    2.71264345892077   -0.67162731712707
C        47.44761047581038    3.34666735785476   -0.95582929161276
C        48.40358651111611    2.40520453815404   -0.78676705848700
C        47.72929563789185    1.20515574618868   -0.39274858340646
N        46.38136602754785    1.39322060366982   -0.35495179170223
C        48.40461579689284    0.03283263826975   -0.03997909152430
C        47.71771381035036   -1.13564777777409    0.30265737655989
C        48.37998632438077   -2.34497813205528    0.68846394809677
C        47.41577266987178   -3.28103689336717    0.83976110890771
C        46.17049040349620   -2.63361804750476    0.55645476896973
N        46.36857402893373   -1.31253043755507    0.25502904759265
C        44.96002043741464   -3.29489609737905    0.54123183973656
C        43.75471391704768   -2.66580096489531    0.30782228195977
N        43.56994318543149   -1.31880508638314    0.14518273650428
H        42.39013482577596   -4.41981870095714    0.36934353804244
H        40.48208571354360   -2.53602734903712    0.03861539194917
H        40.51300923157575    2.68557977260695   -0.08493507898762
H        42.43689619948259    4.54227524708283   -0.47238039231208
H        44.99691348298094    4.44687989243025   -0.86023545663584
H        47.55753090857151    4.37427142694798   -1.24309099584776
H        49.46413932922377    2.48837055184689   -0.92011797974410
H        49.43898897481815   -2.43791585247750    0.82731538057859
H        47.51587065159039   -4.31263164789246    1.11607955634140
H        44.95511682824647   -4.35829794016002    0.72577048879167
Ni       55.84693401992344    0.03448365005323   -0.00487827801529
C        53.40282719955693   -3.39901053477805   -0.18328743444780
C        52.44105675419849   -2.45004957903448   -0.24418480426616
C        53.10378529812206   -1.18811279302456   -0.10969977543313
C        52.41931257620291    0.02746329390019   -0.01578407696059
C        53.09844515954877    1.24535116621613    0.08842203447997
C        52.42970625093280    2.50372416367306    0.22692885746352
C        53.38839517821945    3.45669417652768    0.18222219610496
C        54.63660472041571    2.77292909861195    0.02529820843503
N        54.44624956777688    1.41696207493783    0.00130207898186
C        55.84033246070463    3.42288653192405   -0.15311068558739
C        57.04631973661039    2.76452463115599   -0.27794731088182
C        58.29081702306381    3.43676364722573   -0.50026210308231
C        59.25288927641672    2.48658807044940   -0.47107771605949
C        58.59022729499961    1.24237953685080   -0.22084254607810
N        57.24225751988369    1.41634269967252   -0.13924161986077
C        59.27475358810771    0.04064504217920   -0.01508905917709
C        58.59539580998717   -1.16246033226534    0.20032622800853
C        59.26397482388435   -2.40275565931668    0.45444257431247
C        58.30504995581855   -3.35547111418576    0.49944067131403
C        57.05685890290430   -2.68898747317955    0.28039523326007
N        57.24745459621747   -1.34119361298305    0.13003999934840
C        55.85313971113297   -3.35287954592008    0.16367774613408
C        54.64723984675553   -2.70919373586617   -0.02293409480462
N        54.45155373289411   -1.35392850310055   -0.01062142429182
H        53.30121886804213   -4.46535898373645   -0.23934255249190
H        51.38351977089832   -2.56806107525369   -0.37527454791482
H        51.37071348706729    2.61667229657091    0.35060822005485
H        53.28222883974551    4.52216179012000    0.24604064697908
H        55.83820508427741    4.50121505047280   -0.19931902799875
H        58.39216012999285    4.49330894000696   -0.65519401075284
H        60.31062612615750    2.59234778520793   -0.61081502332175
H        60.32308522761553   -2.50407160572190    0.58694904341481
H        58.41095353312888   -4.41040585112819    0.66208724184913
H        55.85532827550406   -4.43079085579872    0.21874337680223
Ni       66.72151232811829    0.02334141275442   -0.03338826706298
C        64.25128669012352   -3.34078346946793   -0.67808998411036
C        63.29371046609081   -2.39115107957432   -0.57857086968884
C        63.96709229366198   -1.16168481296752   -0.28694926992415
C        63.28986774174086    0.03485903717919   -0.03336648646207
C        63.97491680779004    1.22780804406548    0.21571458602510
C        63.30970796807343    2.46313196527825    0.50108154594467
C        64.27330893799856    3.40738865888880    0.59325902223609
C        65.52093034921461    2.73992114481389    0.37388438785484
N        65.32467828455987    1.40045955079375    0.16747190108367
C        66.73249180612292    3.39780104912259    0.33149126345857
C        67.94027534057328    2.75547504859591    0.15394919834957
C        69.19363030895508    3.44530670849092    0.09331748066302
C        70.15172136344761    2.49624328049415   -0.00715010250462
C        69.47659118209599    1.23344615968792   -0.00090344005594
N        68.12719731980717    1.40155544285708    0.07150463820053
C        70.15211477027789    0.01006127832600   -0.01741490226307
C        69.46738374969848   -1.20789631435358   -0.04390147756158
C        70.13266809483306   -2.47582819421658   -0.03664931754349
C        69.16866776796115   -3.41701569396461   -0.15325594928917
C        67.92127712247816   -2.71730940389442   -0.22287646100388
N        68.11757098878537   -1.36533970674129   -0.13125837024772
C        66.70997694928487   -3.34950050451342   -0.41260414567300
C        65.50327821510513   -2.68275347068148   -0.45507583526116
N        65.31577080475087   -1.34318157295807   -0.24102079898703
H        64.14257659243802   -4.38833289800553   -0.88148712941602
H        62.23250705852310   -2.48736443861215   -0.69730062072097
H        62.24927795471115    2.56667660890603    0.62020678138948
H        64.17140976663295    4.45682989435217    0.79031099183364
H        66.73609519319658    4.47103052089550    0.44605354280406
H        69.30280917006951    4.51188181347003    0.12568913321597
H        71.21436889638291    2.61493992281282   -0.08824350537644
H        71.19341770954311   -2.60293325581222    0.05543709523455
H        69.27014573373033   -4.48420531411188   -0.19033638438828
H        66.70632711211717   -4.42201155651287   -0.53372869277411
