185
 energy: -339.235114941021 gnorm: 0.804703442282 xtb: 6.4.1 (bd6e46d)
Ni       32.94370100000000    0.04460800000000   -0.01411300000000
C        35.27269200000000   -3.10218500000000    1.30857600000000
C        36.18879900000000   -2.15797800000000    1.25829400000000
C        35.77762000000000   -1.10407400000000    0.33700200000000
C        36.39649000000000    0.02027200000000   -0.00940800000000
C        35.69244800000000    1.24022000000000   -0.37351300000000
C        36.02055900000001    2.20027500000000   -1.22098700000000
C        34.98577900000000    3.21656100000000   -1.23788400000000
C        34.04951100000000    2.84009900000000   -0.39099300000000
N        34.45150100000000    1.60708800000000    0.17282400000000
C        32.78843700000000    3.48509800000000   -0.01184100000000
C        31.69321900000000    2.85031600000000    0.33891900000000
C        30.61959400000000    3.16827200000000    1.30794700000000
C        29.78203100000000    2.17151800000000    1.23078100000000
C        30.22032800000000    1.16783500000000    0.25032900000000
N        31.32526700000000    1.60668800000000   -0.23396300000000
C        29.60949400000000   -0.08543600000000   -0.16321900000000
C        30.27365400000000   -1.18994300000000   -0.41764300000000
C        29.89980600000000   -2.25288400000000   -1.37517100000000
C        30.84855300000000   -3.14664000000000   -1.28615100000000
C        31.83427700000000   -2.70919000000000   -0.30327400000000
N        31.48123100000000   -1.56338500000000    0.19352300000000
C        33.06516400000000   -3.36526100000000    0.14244700000000
C        34.18820600000000   -2.71939900000000    0.40956800000000
N        34.51680600000000   -1.47195800000000   -0.18883500000000
H        35.33295400000000   -4.01196600000000    1.92612300000000
H        37.10512700000000   -2.19792700000000    1.83634200000000
H        36.94792400000000    2.21707100000000   -1.82213000000000
H        35.00267800000000    4.12124900000000   -1.85050600000000
H        32.74071400000000    4.57990100000000   -0.01561800000000
H        30.56677200000000    4.04699700000000    1.93294000000000
H        28.87040100000000    2.13584800000000    1.84810500000000
H        28.51124300000000   -0.08252600000000   -0.26249000000000
H        29.03095000000000   -2.30534900000000   -2.02412100000000
H        30.84570700000000   -4.06294800000000   -1.88491100000000
H        33.02968200000000   -4.46106200000000    0.25437200000000
Ni       78.73524700000000   -0.00276800000000   -0.01854600000000
C        76.40625600000000    2.84402400000000    1.86495900000000
C        75.49014900000000    1.92553400000000    1.64038600000000
C        75.90132800000001    1.06083700000000    0.53957100000000
C        75.28245800000001    0.02027200000000   -0.00940800000000
C        75.98650000000001   -1.11095300000000   -0.59351100000000
C        75.65838900000000   -1.89712400000000   -1.60437700000000
C        76.69316900000000   -2.89263400000000   -1.80951800000000
C        77.62943700000000   -2.67981700000000   -0.90748700000000
N        77.22744700000001   -1.57280500000000   -0.12471600000000
C        78.89051200000000   -3.38395800000000   -0.65457400000000
C        79.98572900000001   -2.82526600000000   -0.19214100000000
C        81.05935400000000   -3.31747100000000    0.70108100000000
C        81.89691700000000   -2.32370400000000    0.81016600000000
C        81.45862000000000   -1.15555500000000    0.03293100000000
N        80.35368200000001   -1.49694700000000   -0.52436800000000
C        82.06945399999999    0.15268000000000   -0.14093900000000
C        81.40529400000000    1.28521300000000   -0.18604500000000
C        81.77914300000002    2.50733900000000   -0.92976000000000
C        80.83039500000001    3.36906600000000   -0.67648100000000
C        79.84467200000000    2.75687200000000    0.20818200000000
N        80.19771700000000    1.53879300000000    0.48379200000000
C        78.61378400000001    3.31886600000000    0.76787700000000
C        77.49074200000000    2.63466200000000    0.91054400000000
N        77.16214200000000    1.51988700000000    0.09111000000000
H        76.34599400000000    3.62344800000000    2.64056300000000
H        74.57382100000000    1.85755400000000    2.21581100000000
H        74.73102400000002   -1.80210700000000   -2.19820200000000
H        76.67627000000000   -3.66796800000000   -2.57933800000000
H        78.93823400000001   -4.45905600000000   -0.86138800000000
H        81.11217600000002   -4.29688800000000    1.15220800000000
H        82.80854800000000   -2.40317600000000    1.42339200000000
H        83.16770500000000    0.16823600000000   -0.23902600000000
H        82.64799800000000    2.67928300000000   -1.55771200000000
H        80.83324100000000    4.38054800000000   -1.09485900000000
H        78.64926600000001    4.37488300000000    1.08114600000000
C        39.01093900000000    0.02027200000000   -0.00940800000000
C        40.22714400000000    0.02027200000000   -0.00940800000000
C        49.82456000000000    0.02027200000000   -0.00940800000000
C        51.04076600000000    0.02027200000000   -0.00940800000000
C        60.63818200000000    0.02027200000000   -0.00940800000000
C        61.85438800000001    0.02027200000000   -0.00940800000000
C        71.45180400000001    0.02027200000000   -0.00940800000000
C        72.66801000000000    0.02027200000000   -0.00940800000000
Ni       45.05734800000000    0.03307400000000    0.00407800000000
C        42.77753700000000   -3.22837400000000   -0.90558800000000
C        41.82132800000001   -2.32902300000000   -1.00761400000000
C        42.21370200000000   -1.16671800000000   -0.20509800000000
C        41.57858600000000   -0.01544600000000    0.00716800000000
C        42.26404300000001    1.25915400000000    0.23339700000000
C        41.92875300000000    2.33775400000000    0.93763700000000
C        42.95329400000000    3.35707100000000    0.84705600000000
C        43.90389100000000    2.86014600000000    0.07369100000000
N        43.52689700000000    1.54354100000000   -0.34245200000000
C        45.15103100000001    3.47184700000000   -0.34317400000000
C        46.25258200000000    2.80459000000000   -0.67494600000000
C        47.24612900000000    3.05657500000000   -1.70911600000000
C        48.14001200000001    2.09571600000000   -1.60763200000000
C        47.76031400000000    1.18383200000000   -0.50365500000000
N        46.66539900000000    1.63315100000000    0.00371200000000
C        48.41752100000000   -0.01544600000000    0.00716800000000
C        47.79410900000000   -1.08462800000000    0.46868500000000
C        48.17282200000000   -2.01674300000000    1.54416000000000
C        47.23215300000000   -2.93088900000000    1.63002600000000
C        46.22385200000000   -2.63511000000000    0.63259900000000
N        46.56162700000001   -1.58173300000000   -0.01669600000000
C        44.97145900000000   -3.34211800000000    0.30140600000000
C        43.85758200000000   -2.74542100000000   -0.04593600000000
N        43.47547000000000   -1.46266400000000    0.37174700000000
H        42.77788200000000   -4.21944700000000   -1.39682200000000
H        40.91279400000000   -2.45071700000000   -1.58876200000000
H        41.00390100000000    2.45610500000000    1.51456300000000
H        42.98058900000000    4.34623500000000    1.30370600000000
H        45.23697100000000    4.56922500000000   -0.40519700000000
H        47.27880100000000    3.86279100000000   -2.43594000000000
H        49.03307400000000    1.98274700000000   -2.24140600000000
H        49.08757200000000   -1.94233700000000    2.15433000000000
H        47.25120000000000   -3.74449700000000    2.33829300000000
H        45.00994300000000   -4.44207700000000    0.36044200000000
Ni       55.87097000000000    0.03307400000000    0.00407800000000
C        53.59115900000000   -3.22837400000000   -0.90558800000000
C        52.63495000000000   -2.32902300000000   -1.00761400000000
C        53.02732400000001   -1.16671800000000   -0.20509800000000
C        52.39220800000000   -0.01544600000000    0.00716800000000
C        53.07766500000001    1.25915400000000    0.23339700000000
C        52.74237400000000    2.33775400000000    0.93763700000000
C        53.76691600000000    3.35707100000000    0.84705600000000
C        54.71751300000000    2.86014600000000    0.07369100000000
N        54.34051900000000    1.54354100000000   -0.34245200000000
C        55.96465300000000    3.47184700000000   -0.34317400000000
C        57.06620400000000    2.80459000000000   -0.67494600000000
C        58.05975100000000    3.05657500000000   -1.70911600000000
C        58.95363400000001    2.09571600000000   -1.60763200000000
C        58.57393600000001    1.18383200000000   -0.50365500000000
N        57.47902100000000    1.63315100000000    0.00371200000000
C        59.23114300000000   -0.01544600000000    0.00716800000000
C        58.60773100000000   -1.08462800000000    0.46868500000000
C        58.98644400000001   -2.01674300000000    1.54416000000000
C        58.04577500000000   -2.93088900000000    1.63002600000000
C        57.03747400000000   -2.63511000000000    0.63259900000000
N        57.37524900000000   -1.58173300000000   -0.01669600000000
C        55.78508100000001   -3.34211800000000    0.30140600000000
C        54.67120400000000   -2.74542100000000   -0.04593600000000
N        54.28909200000000   -1.46266400000000    0.37174700000000
H        53.59150400000000   -4.21944700000000   -1.39682200000000
H        51.72641600000000   -2.45071700000000   -1.58876200000000
H        51.81752200000000    2.45610500000000    1.51456300000000
H        53.79421100000000    4.34623500000000    1.30370600000000
H        56.05059300000001    4.56922500000000   -0.40519700000000
H        58.09242300000000    3.86279100000000   -2.43594000000000
H        59.84669500000000    1.98274700000000   -2.24140600000000
H        59.90119400000000   -1.94233700000000    2.15433000000000
H        58.06482200000000   -3.74449700000000    2.33829300000000
H        55.82356500000000   -4.44207700000000    0.36044200000000
Ni       66.68459199999999    0.03307400000000    0.00407800000000
C        64.40478100000000   -3.22837400000000   -0.90558800000000
C        63.44857200000000   -2.32902300000000   -1.00761400000000
C        63.84094600000000   -1.16671800000000   -0.20509800000000
C        63.20583000000000   -0.01544600000000    0.00716800000000
C        63.89128700000000    1.25915400000000    0.23339700000000
C        63.55599600000000    2.33775400000000    0.93763700000000
C        64.58053800000000    3.35707100000000    0.84705600000000
C        65.53113500000001    2.86014600000000    0.07369100000000
N        65.15414100000000    1.54354100000000   -0.34245200000000
C        66.77827499999999    3.47184700000000   -0.34317400000000
C        67.87982599999999    2.80459000000000   -0.67494600000000
C        68.87337300000000    3.05657500000000   -1.70911600000000
C        69.76725600000000    2.09571600000000   -1.60763200000000
C        69.38755800000000    1.18383200000000   -0.50365500000000
N        68.29264200000000    1.63315100000000    0.00371200000000
C        70.04476500000001   -0.01544600000000    0.00716800000000
C        69.42135300000000   -1.08462800000000    0.46868500000000
C        69.80006600000000   -2.01674300000000    1.54416000000000
C        68.85939700000000   -2.93088900000000    1.63002600000000
C        67.85109600000000   -2.63511000000000    0.63259900000000
N        68.18887100000002   -1.58173300000000   -0.01669600000000
C        66.59870300000000   -3.34211800000000    0.30140600000000
C        65.48482600000000   -2.74542100000000   -0.04593600000000
N        65.10271400000001   -1.46266400000000    0.37174700000000
H        64.40512600000000   -4.21944700000000   -1.39682200000000
H        62.54003800000000   -2.45071700000000   -1.58876200000000
H        62.63114400000000    2.45610500000000    1.51456300000000
H        64.60783200000000    4.34623500000000    1.30370600000000
H        66.86421400000000    4.56922500000000   -0.40519700000000
H        68.90604500000001    3.86279100000000   -2.43594000000000
H        70.66031700000001    1.98274700000000   -2.24140600000000
H        70.71481600000000   -1.94233700000000    2.15433000000000
H        68.87844400000002   -3.74449700000000    2.33829300000000
H        66.63718700000000   -4.44207700000000    0.36044200000000
185
 energy: -339.539104596218 gnorm: 0.457702214632 xtb: 6.4.1 (bd6e46d)
Ni       32.95286836847872    0.04264195006588   -0.01278548437299
C        35.27360077943124   -3.11148742991246    1.29966865868455
C        36.20422852707270   -2.15797633431758    1.25457142663546
C        35.77669387216770   -1.10694803589577    0.34187870098778
C        36.39023812513480    0.04259902523143   -0.00860441156915
C        35.68215167912583    1.23438283577573   -0.36613156315500
C        36.03370341972978    2.22916473465049   -1.23835919823346
C        35.01673824341631    3.21844849614291   -1.25129966724850
C        34.04227542586821    2.81431571002869   -0.38446700137553
N        34.42267321678259    1.57920735945601    0.16968599971495
C        32.80802799294039    3.48400227535808   -0.01183539274535
C        31.68369238242352    2.83395866783861    0.33976524889413
C        30.61992370828255    3.17652990844182    1.29036149200597
C        29.75587406403082    2.16445481509622    1.23364679004011
C        30.21628087138905    1.16737197418387    0.26714862443211
N        31.36575365259468    1.57954023628472   -0.21099579283981
C        29.59667207317784   -0.06374142986430   -0.15663443523665
C        30.27771881948444   -1.19286262675351   -0.42263338378851
C        29.89079775177825   -2.25340174472711   -1.36084590728537
C        30.85548102635628   -3.16822190426421   -1.28336796216203
C        31.84473925885292   -2.71698906730820   -0.31166201327089
N        31.49920040309571   -1.53425523420835    0.16412781053321
C        33.04756087722019   -3.37224823346986    0.13497407736956
C        34.19366973960967   -2.70254286905575    0.41305687820436
N        34.50606796167797   -1.45784321332807   -0.15593834414481
H        35.32426015450032   -4.00650870780868    1.91786665872725
H        37.11015984549599   -2.18856159060884    1.83378323908627
H        36.94584653361547    2.22632997987781   -1.82421232415128
H        35.01000323173312    4.11777211370153   -1.85156010954424
H        32.75720444496974    4.57562880405235   -0.00868592615035
H        30.57390145558039    4.04539091861277    1.92641254001669
H        28.86556440350407    2.12648354061822    1.84707095374174
H        28.51203601879412   -0.07390362893226   -0.26842033026846
H        29.03282712278026   -2.29593756910767   -2.01638321470173
H        30.85679817544057   -4.06726200477302   -1.88146477267124
H        33.02497043023167   -4.45728333558690    0.25463683750611
Ni       78.72612223735999   -0.00109430188691   -0.01691520481415
C        76.40537255897593    2.85484057491269    1.85792993912959
C        75.47479119498892    1.92621794022474    1.63672809360933
C        75.90245466306928    1.06273068833105    0.54502186888441
C        75.28913190214664   -0.00206277193843   -0.01221632196258
C        75.99701298008996   -1.10658103057290   -0.58512821274097
C        75.64531053759977   -1.92228312172895   -1.62674527630292
C        76.66220238525712   -2.89199053683734   -1.82305147040011
C        77.63669440540923   -2.65570454064127   -0.89629520250135
N        77.25631391289674   -1.54497688446399   -0.12257241878100
C        78.87093287868954   -3.38290397686645   -0.65437304993121
C        79.99525220172939   -2.80934380920204   -0.18827254554277
C        81.05902673859090   -3.32232523696377    0.68225522335928
C        81.92306185873350   -2.31728618106774    0.81429538345899
C        81.46267405748712   -1.15822210011567    0.04951832712612
N        80.31322659929228   -1.47454671545274   -0.49682822266101
C        82.08227122170841    0.13013698808826   -0.13850241163646
C        81.40122705977842    1.28901140835442   -0.19042240602225
C        81.78815659839420    2.50518494728991   -0.91558937605445
C        80.82345269380306    3.38974742127236   -0.66976978009909
C        79.83421221750717    2.76608629156790    0.20136719073413
N        80.17976217412537    1.51565434165064    0.44952914278376
C        78.63137044640314    3.32715502477313    0.76182995629610
C        77.48525442483940    2.61753716987347    0.91080602377973
N        77.17295305149015    1.49990531472862    0.12088183172510
H        76.35468143338586    3.61962680805692    2.63143698127057
H        74.56881814489374    1.84886144746641    2.21153730978916
H        74.73314449472477   -1.81079435886650   -2.20201103279996
H        76.66894889718237   -3.66435358760427   -2.57976701658547
H        78.92175892941286   -4.45616340219274   -0.85380955476471
H        81.10505103183142   -4.29410595849025    1.14608455503782
H        82.81338640313771   -2.39378419622863    1.42410591369113
H        83.16691054625352    0.16086358428408   -0.24646007277040
H        82.64612398849452    2.66859793919348   -1.55186180377745
H        80.82214651300183    4.38414857336746   -1.09067973508369
H        78.65398313911972    4.37113380448752    1.08073211942780
C        38.97645348768974    0.01922537744384   -0.00945032060303
C        40.19696145313203    0.02897149724763   -0.01211175406857
C        49.82179286868085    0.02748901296584   -0.00700013186152
C        51.03376088728817    0.02860646744446   -0.01060053137656
C        60.63535617029274    0.02752126989168   -0.00682363719874
C        61.84738123205094    0.02861936886204   -0.01059964408829
C        71.47693191413882    0.02736948232597   -0.00516300413000
C        72.69558427976415    0.02000396901817   -0.00985670573899
Ni       45.04953347323674    0.03445174153342    0.00302064383905
C        42.77780801882018   -3.24665982656853   -0.89791840506869
C        41.81473930020260   -2.32864622080152   -0.99871637738388
C        42.23626827274079   -1.17824426326460   -0.20841226465654
C        41.58488252665609    0.00529825993150    0.00545008666731
C        42.29097695711896    1.26024996574797    0.23047282638980
C        41.91866444786761    2.36538475969507    0.94854271269250
C        42.92737353449444    3.35801250882658    0.85451146612064
C        43.91567659430183    2.83696120655627    0.06969801084218
N        43.55689434011022    1.52356324163184   -0.32584359166545
C        45.13605731188410    3.47129396790904   -0.34501630852201
C        46.26056079244114    2.79132198881509   -0.67564692101767
C        47.25374588754416    3.06450284761404   -1.69566652135984
C        48.16147641171175    2.08445871124361   -1.60590795774833
C        47.76127174326611    1.18204282043133   -0.51961772655897
N        46.62522930781823    1.60725609594590   -0.01767072051807
C        48.42692867157162    0.00232369682456   -0.00157430801896
C        47.78028025473851   -1.09636583835563    0.47530144501370
C        48.18593732090956   -2.01679903375584    1.53340700486974
C        47.22899867489865   -2.94742595855148    1.62902228448469
C        46.21200752490585   -2.64033617895104    0.64138316596590
N        46.54037726194154   -1.54077759472110   -0.00167971413114
C        44.99199173335926   -3.34954458401522    0.31109298671141
C        43.84632016742067   -2.73093642909144   -0.05387972516965
N        43.49369243266379   -1.44262437499848    0.33565436677894
H        42.78313026244726   -4.21602657208486   -1.39291948407123
H        40.91357035026623   -2.44047348508495   -1.58399912168306
H        41.00308125175993    2.46090213484368    1.51594716970711
H        42.96909335928857    4.34006588121462    1.30598850540776
H        45.21905764593743    4.56303441856886   -0.41124314577389
H        47.27152679097869    3.86105392654770   -2.42748827300688
H        49.03408395428160    1.97587012792128   -2.23815359105796
H        49.08218726289267   -1.93709125806022    2.14591345014336
H        47.24360536665789   -3.75078687843607    2.33905200586810
H        45.01603460592865   -4.43970561810619    0.35821735457683
Ni       55.86274475734919    0.03456741065183    0.00290825250150
C        53.59123590689359   -3.24704383494264   -0.89806107173899
C        52.62850886427965   -2.32919103693141   -0.99817294169171
C        53.05298796375244   -1.18000857722353   -0.20680678530015
C        52.40497980883501    0.00481166133127    0.00574447709106
C        53.10715761772264    1.26187153283551    0.23011414889955
C        52.73266469186305    2.36520917880043    0.94821635878997
C        53.74133327430390    3.35836344317411    0.85438046135108
C        54.72984426603232    2.83750197024426    0.06976059747688
N        54.37202684607045    1.52390318507660   -0.32515481299816
C        55.94969957242708    3.47148445716033   -0.34489496555447
C        57.07427264432759    2.79124866088408   -0.67569549619358
C        58.06731537413433    3.06451151133094   -1.69565826782693
C        58.97510313008659    2.08439741955880   -1.60592791020044
C        58.57468567318582    1.18207163648266   -0.51982933791241
N        57.43875806031608    1.60718089830521   -0.01798606872901
C        59.24057189178655    0.00218534713523   -0.00152409711301
C        58.59403067438267   -1.09639999924205    0.47520341185139
C        58.99964681151158   -2.01678713256072    1.53345055532236
C        58.04270216881766   -2.94739288278782    1.62905684698520
C        57.02579409277656   -2.63984454225822    0.64168782587520
N        57.35389267609833   -1.54073889338219   -0.00135681203324
C        55.80533077867062   -3.34971902354193    0.31079082388397
C        54.66070031224231   -2.73143154164863   -0.05381487809118
N        54.30894202549005   -1.44291795691644    0.33519110795032
H        53.59657913501631   -4.21620801264460   -1.39295422400533
H        51.72734896332592   -2.44043946155743   -1.58394963623789
H        51.81687897011932    2.46068983936575    1.51586260793778
H        53.78264739014259    4.34027353558322    1.30584758540026
H        56.03277241161465    4.56313895787113   -0.41117106399132
H        58.08515084122913    3.86106688560131   -2.42746024643231
H        59.84772158987305    1.97586907501612   -2.23810749255617
H        59.89585954768072   -1.93711599470597    2.14589254337907
H        58.05720307852338   -3.75075724771055    2.33904361904750
H        55.82975480242613   -4.43977995958989    0.35780887412634
Ni       66.67639339414285    0.03448944711530    0.00284210773905
C        64.40471593805671   -3.24709539580816   -0.89803961326144
C        63.44216955661449   -2.32932907449726   -0.99814477429337
C        63.86669516436307   -1.17987628354833   -0.20676334968945
C        63.21861667710947    0.00479846041642    0.00565896529004
C        63.92074010250953    1.26198022187589    0.23003998237593
C        63.54634075451691    2.36529139838770    0.94821649189048
C        64.55487821713055    3.35836813807644    0.85442241535198
C        65.54347904775088    2.83757979042781    0.06955416921986
N        65.18560275987110    1.52394564457339   -0.32527376400668
C        66.76326443514034    3.47110458040245   -0.34476057831404
C        67.88835817753609    2.79054658652125   -0.67544962531581
C        68.88100878950372    3.06415447019689   -1.69567174803597
C        69.78903393943214    2.08426651754037   -1.60632896136145
C        69.39068740716998    1.18004593808277   -0.52087611346719
N        68.25429202194185    1.60678720174814   -0.01728709578243
C        70.06045863781922    0.00187719731674   -0.00149230488808
C        69.41112942295995   -1.09400236588621    0.47545923432620
C        69.81358531278444   -2.01651835107044    1.53373502613082
C        68.85647136174200   -2.94680572725155    1.62897613561137
C        67.84025130032903   -2.63884369274326    0.64158248119886
N        68.16872424016638   -1.54041981195806   -0.00161772417854
C        66.61866496692863   -3.34953909770624    0.31053032317530
C        65.47444618270139   -2.73163615202581   -0.05350066269502
N        65.12259468322679   -1.44274717256261    0.33540080368752
H        64.41016765435936   -4.21622274418588   -1.39298268709547
H        62.54100528844588   -2.44044797289139   -1.58399897519649
H        62.63054575827394    2.46069818646277    1.51592324266463
H        64.59623331221783    4.34030370302946    1.30586767310360
H        66.84651012973818    4.56293852239043   -0.41101662038666
H        68.89868826435315    3.86097898920316   -2.42741439587994
H        70.66151524166064    1.97594434907373   -2.23827390660115
H        70.70966841104719   -1.93729808210671    2.14595080675664
H        68.87072978396139   -3.75051419830681    2.33894030185366
H        66.64353336651529   -4.43967130350908    0.35735570467308
185
 energy: -339.734777036411 gnorm: 0.207539697403 xtb: 6.4.1 (bd6e46d)
Ni       32.96072520618363    0.04245769253591   -0.00990284622344
C        35.27204728002683   -3.11636308875398    1.28803290939596
C        36.21807401511780   -2.15725862388399    1.24783836906054
C        35.77296030603760   -1.10754298028757    0.35134602261214
C        36.38258367164330    0.06464472246298   -0.01355469362466
C        35.67298453506317    1.22457926065780   -0.36188200345818
C        36.04178153836369    2.25892348696273   -1.24760314945336
C        35.04956554856544    3.21561674052638   -1.25376630049136
C        34.03464688591465    2.78468542638403   -0.37638460731819
N        34.39379079055146    1.54782874038683    0.14908651077952
C        32.83121925718066    3.47558185466883   -0.01257351592238
C        31.68328733552110    2.80810992397489    0.34753874166722
C        30.62561147162292    3.17780551640506    1.26682657856554
C        29.73339706261948    2.16063447239035    1.22714873276742
C        30.21266585494898    1.16474061066554    0.28631108179703
N        31.41307511129762    1.54694193740104   -0.17531281930101
C        29.58949116785109   -0.04221005135437   -0.14806401643038
C        30.28833679063215   -1.18931702714094   -0.43556179409307
C        29.88806449770020   -2.25108865726833   -1.34275437300363
C        30.85911330802070   -3.18641961995161   -1.27266026506003
C        31.85698974376637   -2.72190753154599   -0.32175255739116
N        31.52123787220005   -1.49400347860783    0.12239377456317
C        33.03098516382625   -3.37254940124310    0.12609537177572
C        34.19472815129654   -2.67868083930034    0.42053511181253
N        34.49331907043371   -1.44196643621473   -0.11609071386879
H        35.31405766444917   -4.00057360663652    1.90556747215376
H        37.11763115077282   -2.17811395733871    1.82766046506341
H        36.94384980697297    2.23426150080787   -1.82365761231243
H        35.01382411942529    4.11213951997140   -1.84749508749833
H        32.77466667335882    4.56452353004000   -0.00759239522070
H        30.58139543006245    4.04025840846542    1.91364132676903
H        28.86009323696786    2.11647007231225    1.84180694661340
H        28.51455184635651   -0.06803512839178   -0.26828127065866
H        29.03685292872493   -2.28606004759590   -2.00387006190918
H        30.86849855747244   -4.07242635908139   -1.87380674544329
H        33.02466860021261   -4.45028257821088    0.25004555983561
Ni       78.71828383535353   -0.00144024666467   -0.01404955824052
C        76.40694685875921    2.86177922135135    1.84739702434223
C        75.46107003521361    1.92663261119984    1.62993217476486
C        75.90659658771126    1.06166090499893    0.55414493857311
C        75.29769510701657   -0.02212315550950   -0.02278569900236
C        76.00651710121264   -1.09764140766751   -0.57937079671623
C        75.63735395480181   -1.94982863279899   -1.64139329958094
C        76.62941830767082   -2.88881608663085   -1.82493543654733
C        77.64437305776174   -2.62821282390585   -0.88280890018809
N        77.28531983459037   -1.51042001594493   -0.13698411115931
C        78.84775889351135   -3.37456417116318   -0.65352457654957
C        79.99566887922879   -2.78540245601108   -0.17581765885489
C        81.05332383878917   -3.31919474652871    0.65891771358127
C        81.94554672510446   -2.31230583897546    0.80861937262907
C        81.46630565333680   -1.15918900475851    0.06884617405935
N        80.26588014612678   -1.44914569221133   -0.45569099073792
C        82.08946109531202    0.10738214056551   -0.13407218121911
C        81.39061741691772    1.28793021239748   -0.20379631499347
C        81.79088241594187    2.49953628113958   -0.89826257466688
C        80.81981408634286    3.40564037511695   -0.65589316372140
C        79.82196933641954    2.77281486563268    0.19235062752465
N        80.15771869340107    1.48384596247221    0.40103786883591
C        78.64799443261005    3.32916963535113    0.75317447616948
C        77.48426930210660    2.59279865829746    0.91375312507904
N        77.18600270419192    1.47709491910516    0.15707055621674
H        76.36485234311662    3.61610020185990    2.61821711168401
H        74.56139548391884    1.83974009080058    2.20347748090387
H        74.73524518838224   -1.81869924811372   -2.20291881540400
H        76.66514623960066   -3.65961166156456   -2.57471541465996
H        78.90432658284273   -4.44549848579769   -0.85068805430557
H        81.09755351661661   -4.28667967072101    1.13451493197921
H        82.81886050708682   -2.38295224270678    1.42080068386851
H        83.16440206043599    0.15507085436422   -0.24740664705393
H        82.64209569278452    2.65655587821523   -1.54141895988632
H        80.81044271016773    4.38779589397914   -1.08222611755859
H        78.65430636004047    4.36516288628536    1.07490883993763
C        38.94323403039689    0.02377611472134   -0.00819639248970
C        40.16534194688059    0.03791088486969   -0.01065241554065