      -----------------------------------------------------------      
     |                   =====================                   |     
     |                           x T B                           |     
     |                   =====================                   |     
     |                         S. Grimme                         |     
     |          Mulliken Center for Theoretical Chemistry        |     
     |                    University of Bonn                     |     
      -----------------------------------------------------------      

   * xtb version 6.4.1 (bd6e46d) compiled by 'conda@4901f00b25ba' on 2021-06-10

   xtb is free software: you can redistribute it and/or modify it under
   the terms of the GNU Lesser General Public License as published by
   the Free Software Foundation, either version 3 of the License, or
   (at your option) any later version.
   
   xtb is distributed in the hope that it will be useful,
   but WITHOUT ANY WARRANTY; without even the implied warranty of
   MERCHANTABILITY or FITNESS FOR A PARTICULAR PURPOSE.  See the
   GNU Lesser General Public License for more details.
   
   Cite this work as:
   * C. Bannwarth, E. Caldeweyher, S. Ehlert, A. Hansen, P. Pracht,
     J. Seibert, S. Spicher, S. Grimme, WIREs Comput. Mol. Sci., 2020, 11,
     e01493. DOI: 10.1002/wcms.1493
   
   for GFN2-xTB:
   * C. Bannwarth, S. Ehlert and S. Grimme., J. Chem. Theory Comput., 2019,
     15, 1652-1671. DOI: 10.1021/acs.jctc.8b01176
   for GFN1-xTB:
   * S. Grimme, C. Bannwarth, P. Shushkov, J. Chem. Theory Comput., 2017,
     13, 1989-2009. DOI: 10.1021/acs.jctc.7b00118
   for GFN0-xTB:
   * P. Pracht, E. Caldeweyher, S. Ehlert, S. Grimme, ChemRxiv, 2019, preprint.
     DOI: 10.26434/chemrxiv.8326202.v1
   for GFN-FF:
   * S. Spicher and S. Grimme, Angew. Chem. Int. Ed., 2020, 59, 15665-15673.
     DOI: 10.1002/anie.202004239
   
   for DFT-D4:
   * E. Caldeweyher, C. Bannwarth and S. Grimme, J. Chem. Phys., 2017,
     147, 034112. DOI: 10.1063/1.4993215
   * E. Caldeweyher, S. Ehlert, A. Hansen, H. Neugebauer, S. Spicher,
     C. Bannwarth and S. Grimme, J. Chem. Phys., 2019, 150, 154122.
     DOI: 10.1063/1.5090222
   * E. Caldeweyher, J.-M. Mewes, S. Ehlert and S. Grimme, Phys. Chem. Chem. Phys.
     2020, 22, 8499-8512. DOI: 10.1039/D0CP00502A
   
   for sTDA-xTB:
   * S. Grimme and C. Bannwarth, J. Chem. Phys., 2016, 145, 054103.
     DOI: 10.1063/1.4959605
   
   in the mass-spec context:
   * V. Asgeirsson, C. Bauer and S. Grimme, Chem. Sci., 2017, 8, 4879.
     DOI: 10.1039/c7sc00601b
   * J. Koopman and S. Grimme, ACS Omega 2019, 4, 12, 15120-15133.
     DOI: 10.1021/acsomega.9b02011
   
   for metadynamics refer to:
   * S. Grimme, J. Chem. Theory Comput., 2019, 155, 2847-2862
     DOI: 10.1021/acs.jctc.9b00143
   
   for SPH calculations refer to:
   * S. Spicher and S. Grimme, J. Chem. Theory Comput., 2021, 17, 1701-1714
     DOI: 10.1021/acs.jctc.0c01306
   
   with help from (in alphabetical order)
   P. Atkinson, C. Bannwarth, F. Bohle, G. Brandenburg, E. Caldeweyher
   M. Checinski, S. Dohm, S. Ehlert, S. Ehrlich, I. Gerasimov, J. Koopman
   C. Lavigne, S. Lehtola, F. März, M. Müller, F. Musil, H. Neugebauer
   J. Pisarek, C. Plett, P. Pracht, J. Seibert, P. Shushkov, S. Spicher
   M. Stahn, M. Steiner, T. Strunk, J. Stückrath, T. Rose, and J. Unsleber
   
 * started run on 2021/11/21 at 21:23:47.776     

           -------------------------------------------------
          |                Calculation Setup                |
           -------------------------------------------------

          program call               : /home/jeff/miniconda3/bin/xtb /home/jeff/chem/final-year-proejct/Cu+2_2_8_outenergy/input_structure.xyz --gfn 2 --parallel 1 --etemp 300 --chrg 0 --uhf 0 -I det_control.in
          coordinate file            : /home/jeff/chem/final-year-proejct/Cu+2_2_8_outenergy/input_structure.xyz
          omp threads                :                     1
          number of atoms            :                   296
          number of electrons        :                  1026
          charge                     :                     0
          spin                       :                   0.0
          first test random number   :      0.83273847470953

   ID    Z sym.   atoms
    1   29 Cu     1, 37, 87, 122, 157, 192, 227, 262
    2    6 C      2-9, 11-15, 17-21, 23, 24, 38-45, 47-51, 53-57, 59, 60,
                  73-86, 88-95, 97-101, 103-107, 109, 110, 123-130, 132-136,
                  138-142, 144, 145, 158-165, 167-171, 173-177, 179, 180,
                  193-200, 202-206, 208-212, 214, 215, 228-235, 237-241,
                  243-247, 249, 250, 263-270, 272-276, 278-282, 284, 285
    3    7 N      10, 16, 22, 25, 46, 52, 58, 61, 96, 102, 108, 111, 131,
                  137, 143, 146, 166, 172, 178, 181, 201, 207, 213, 216, 236,
                  242, 248, 251, 271, 277, 283, 286
    4    1 H      26-36, 62-72, 112-121, 147-156, 182-191, 217-226, 252-261,
                  287-296

           -------------------------------------------------
          |                 G F N 2 - x T B                 |
           -------------------------------------------------

        Reference                      10.1021/acs.jctc.8b01176
      * Hamiltonian:
        H0-scaling (s, p, d)           1.850000    2.230000    2.230000
        zeta-weighting                 0.500000
      * Dispersion:
        s8                             2.700000
        a1                             0.520000
        a2                             5.000000
        s9                             5.000000
      * Repulsion:
        kExp                           1.500000    1.000000
        rExp                           1.000000
      * Coulomb:
        alpha                          2.000000
        third order                    shell-resolved
        anisotropic                    true
        a3                             3.000000
        a5                             4.000000
        cn-shift                       1.200000
        cn-exp                         4.000000
        max-rad                        5.000000


          ...................................................
          :                      SETUP                      :
          :.................................................:
          :  # basis functions                 986          :
          :  # atomic orbitals                 978          :
          :  # shells                          518          :
          :  # electrons                      1026          :
          :  max. iterations                   250          :
          :  Hamiltonian                  GFN2-xTB          :
          :  restarted?                      false          :
          :  GBSA solvation                  false          :
          :  PC potential                    false          :
          :  electronic temp.          300.0000000     K    :
          :  accuracy                    1.0000000          :
          :  -> integral cutoff          0.2500000E+02      :
          :  -> integral neglect         0.1000000E-07      :
          :  -> SCF convergence          0.1000000E-05 Eh   :
          :  -> wf. convergence          0.1000000E-03 e    :
          :  Broyden damping             0.4000000          :
          ...................................................

 iter      E             dE          RMSdq      gap      omega  full diag
   1   -548.4672714 -0.548467E+03  0.504E+00    0.00       0.0  T
   2   -547.6701379  0.797134E+00  0.326E+00    0.13       1.0  T
   3   -373.0099083  0.174660E+03  0.125E+01    0.01       1.0  T
   4   -546.3886962 -0.173379E+03  0.195E+00    0.22       1.0  T
   5   -547.6393787 -0.125068E+01  0.117E+00    0.32       1.0  T
   6   -532.1379244  0.155015E+02  0.496E+00    0.02       1.0  T
   7   -547.0370842 -0.148992E+02  0.120E+00    0.26       1.0  T
   8   -547.5631835 -0.526099E+00  0.103E+00    0.23       1.0  T
   9   -547.5228008  0.403827E-01  0.926E-01    0.20       1.0  T
  10   -547.3353480  0.187453E+00  0.988E-01    0.27       1.0  T
  11   -548.3473463 -0.101200E+01  0.507E-01    0.01       1.0  T
  12   -547.8656316  0.481715E+00  0.787E-01    0.04       1.0  T
  13   -547.6414706  0.224161E+00  0.858E-01    0.10       1.0  T
  14   -547.7035842 -0.621135E-01  0.858E-01    0.10       1.0  T
  15   -548.0846972 -0.381113E+00  0.714E-01    0.01       1.0  T
  16   -548.3027580 -0.218061E+00  0.560E-01    0.02       1.0  T
  17   -548.1054032  0.197355E+00  0.657E-01    0.02       1.0  T
  18   -548.4492339 -0.343831E+00  0.449E-01    0.00       1.0  T
  19   -548.4298678  0.193662E-01  0.429E-01    0.03       1.0  T
  20   -548.5257316 -0.958638E-01  0.346E-01    0.00       1.0  T
  21   -548.6276006 -0.101869E+00  0.217E-01    0.01       1.0  T
  22   -548.6659422 -0.383415E-01  0.133E-01    0.00       1.0  T
  23   -548.6697697 -0.382749E-02  0.126E-01    0.00       1.0  T
  24   -548.6774156 -0.764593E-02  0.101E-01    0.00       1.0  T
  25   -548.6779654 -0.549825E-03  0.960E-02    0.00       1.0  T
  26   -548.6758874  0.207803E-02  0.101E-01    0.00       1.0  T
  27   -548.6748021  0.108531E-02  0.104E-01    0.00       1.0  T
  28   -548.6764890 -0.168695E-02  0.977E-02    0.00       1.0  T
  29   -548.6767240 -0.234959E-03  0.935E-02    0.00       1.0  T
  30   -548.6777179 -0.993926E-03  0.862E-02    0.00       1.0  T
  31   -548.6784575 -0.739549E-03  0.783E-02    0.00       1.0  T
  32   -548.6787577 -0.300261E-03  0.707E-02    0.00       1.0  T
  33   -548.6787817 -0.239390E-04  0.643E-02    0.00       1.0  T
  34   -548.6795664 -0.784715E-03  0.502E-02    0.00       1.0  T
  35   -548.6790099  0.556462E-03  0.463E-02    0.00       1.0  T
  36   -548.6799538 -0.943904E-03  0.306E-02    0.00       1.0  T
  37   -548.6796700  0.283802E-03  0.270E-02    0.00       1.0  T
  38   -548.6801625 -0.492506E-03  0.137E-02    0.00       1.0  T
  39   -548.6801362  0.263122E-04  0.125E-02    0.00       1.0  T
  40   -548.6802741 -0.137847E-03  0.404E-03    0.00       1.4  T
  41   -548.6802849 -0.108345E-04  0.284E-03    0.00       2.0  T
  42   -548.6802813  0.357920E-05  0.305E-03    0.00       1.9  T
  43   -548.6802796  0.168229E-05  0.319E-03    0.00       1.8  T
  44   -548.6802868 -0.718130E-05  0.226E-03    0.00       2.6  T
  45   -548.6802900 -0.316373E-05  0.171E-03    0.00       3.4  T
  46   -548.6802910 -0.100392E-05  0.138E-03    0.00       4.2  T
  47   -548.6802923 -0.133433E-05  0.874E-04    0.00       6.7  T
  48   -548.6802924 -0.447902E-07  0.680E-04    0.00       8.5  T
  49   -548.6802929 -0.529784E-06  0.176E-04    0.00      33.1  T

   *** convergence criteria satisfied after 49 iterations ***

         #    Occupation            Energy/Eh            Energy/eV
      -------------------------------------------------------------
         1        2.0000           -0.6797984             -18.4983
       ...           ...                  ...                  ...
       507        2.0000           -0.3555469              -9.6749
       508        2.0000           -0.3515146              -9.5652
       509        2.0000           -0.3484316              -9.4813
       510        1.0363           -0.3223795              -8.7724
       511        1.0279           -0.3223635              -8.7720
       512        1.0170           -0.3223427              -8.7714
       513        1.0030           -0.3223161              -8.7707 (HOMO)
       514        0.9878           -0.3222874              -8.7699 (LUMO)
       515        0.9783           -0.3222692              -8.7694
       516        0.9731           -0.3222594              -8.7691
       517        0.9512           -0.3222177              -8.7680
       518        0.0246           -0.3181429              -8.6571
       ...           ...                  ...                  ...
       978                          1.4071958              38.2917
      -------------------------------------------------------------
                  HL-Gap            0.0000288 Eh            0.0008 eV
             Fermi-level           -0.3223105 Eh           -8.7705 eV

 SCC (total)                   0 d,  0 h,  0 min, 16.826 sec
 SCC setup                      ...        0 min,  0.016 sec (  0.093%)
 Dispersion                     ...        0 min,  0.032 sec (  0.190%)
 classical contributions        ...        0 min,  0.003 sec (  0.017%)
 integral evaluation            ...        0 min,  0.250 sec (  1.484%)
 iterations                     ...        0 min, 15.806 sec ( 93.935%)
 molecular gradient             ...        0 min,  0.676 sec (  4.018%)
 printout                       ...        0 min,  0.044 sec (  0.261%)

         :::::::::::::::::::::::::::::::::::::::::::::::::::::
         ::                     SUMMARY                     ::
         :::::::::::::::::::::::::::::::::::::::::::::::::::::
         :: total energy            -539.409599511850 Eh    ::
         :: gradient norm              0.000457577359 Eh/a0 ::
         :: HOMO-LUMO gap              0.000782522628 eV    ::
         ::.................................................::
         :: SCC energy              -548.680292893803 Eh    ::
         :: -> isotropic ES            0.222745760356 Eh    ::
         :: -> anisotropic ES          0.075478517748 Eh    ::
         :: -> anisotropic XC          0.208990693078 Eh    ::
         :: -> dispersion             -0.511565403688 Eh    ::
         :: repulsion energy           9.280526851750 Eh    ::
         :: add. restraining           0.000000000000 Eh    ::
         :: total charge              -0.000000000000 e     ::
         :::::::::::::::::::::::::::::::::::::::::::::::::::::

           -------------------------------------------------
          |                Property Printout                |
           -------------------------------------------------

    * Orbital Energies and Occupations

         #    Occupation            Energy/Eh            Energy/eV
      -------------------------------------------------------------
         1        2.0000           -0.6797984             -18.4983
       ...           ...                  ...                  ...
       501        2.0000           -0.3701272             -10.0717
       502        2.0000           -0.3699442             -10.0667
       503        2.0000           -0.3699424             -10.0666
       504        2.0000           -0.3691527             -10.0452
       505        2.0000           -0.3647692              -9.9259
       506        2.0000           -0.3601112              -9.7991
       507        2.0000           -0.3555469              -9.6749
       508        2.0000           -0.3515146              -9.5652
       509        2.0000           -0.3484316              -9.4813
       510        1.0363           -0.3223795              -8.7724
       511        1.0279           -0.3223635              -8.7720
       512        1.0170           -0.3223427              -8.7714
       513        1.0030           -0.3223161              -8.7707 (HOMO)
       514        0.9878           -0.3222874              -8.7699 (LUMO)
       515        0.9783           -0.3222692              -8.7694
       516        0.9731           -0.3222594              -8.7691
       517        0.9512           -0.3222177              -8.7680
       518        0.0246           -0.3181429              -8.6571
       519        0.0009           -0.3149652              -8.5706
       520        0.0000           -0.3108145              -8.4577
       521                         -0.3060056              -8.3268
       522                         -0.3009803              -8.1901
       523                         -0.3003323              -8.1725
       524                         -0.3003302              -8.1724
       ...                                ...                  ...
       978                          1.4071958              38.2917
      -------------------------------------------------------------
                  HL-Gap            0.0000288 Eh            0.0008 eV
             Fermi-level           -0.3223105 Eh           -8.7705 eV

     #   Z          covCN         q      C6AA      α(0)
     1  29 Cu       2.958     0.197   146.188    27.531
     2   6 C        3.022    -0.051    29.231     8.869
     3   6 C        3.021    -0.049    29.188     8.862
     4   6 C        3.162     0.078    25.942     8.325
     5   6 C        2.953     0.018    27.596     8.616
     6   6 C        3.162     0.078    25.941     8.325
     7   6 C        3.021    -0.049    29.189     8.862
     8   6 C        3.022    -0.051    29.232     8.869
     9   6 C        3.147     0.077    26.024     8.345
    10   7 N        2.621    -0.171    24.709     7.382
    11   6 C        2.901    -0.050    29.233     8.865
    12   6 C        3.144     0.078    26.010     8.344
    13   6 C        3.019    -0.050    29.207     8.865
    14   6 C        3.020    -0.050    29.211     8.866
    15   6 C        3.144     0.079    25.993     8.342
    16   7 N        2.623    -0.169    24.677     7.378
    17   6 C        2.901    -0.051    29.276     8.872
    18   6 C        3.144     0.079    25.993     8.342
    19   6 C        3.020    -0.050    29.211     8.866
    20   6 C        3.019    -0.050    29.207     8.865
    21   6 C        3.144     0.078    26.010     8.344
    22   7 N        2.623    -0.169    24.677     7.378
    23   6 C        2.901    -0.050    29.234     8.865
    24   6 C        3.147     0.077    26.024     8.345
    25   7 N        2.620    -0.171    24.708     7.382
    26   1 H        0.926     0.035     2.521     2.483
    27   1 H        0.926     0.036     2.509     2.477
    28   1 H        0.926     0.036     2.509     2.477
    29   1 H        0.926     0.035     2.521     2.483
    30   1 H        0.926     0.050     2.319     2.381
    31   1 H        0.926     0.035     2.513     2.479
    32   1 H        0.926     0.035     2.514     2.479
    33   1 H        0.926     0.049     2.328     2.386
    34   1 H        0.926     0.035     2.514     2.479
    35   1 H        0.926     0.035     2.513     2.479
    36   1 H        0.926     0.050     2.319     2.381
    37  29 Cu       2.958     0.197   146.188    27.531
    38   6 C        3.022    -0.051    29.231     8.869
    39   6 C        3.021    -0.049    29.188     8.862
    40   6 C        3.162     0.078    25.941     8.325
    41   6 C        2.953     0.018    27.597     8.616
    42   6 C        3.162     0.078    25.942     8.325
    43   6 C        3.021    -0.049    29.189     8.862
    44   6 C        3.022    -0.051    29.231     8.869
    45   6 C        3.147     0.077    26.024     8.345
    46   7 N        2.620    -0.171    24.708     7.382
    47   6 C        2.901    -0.050    29.234     8.865
    48   6 C        3.144     0.078    26.010     8.344
    49   6 C        3.019    -0.050    29.207     8.865
    50   6 C        3.020    -0.050    29.211     8.866
    51   6 C        3.144     0.079    25.993     8.342
    52   7 N        2.623    -0.169    24.677     7.378
    53   6 C        2.901    -0.051    29.276     8.872
    54   6 C        3.144     0.079    25.993     8.342
    55   6 C        3.020    -0.050    29.211     8.866
    56   6 C        3.019    -0.050    29.207     8.865
    57   6 C        3.144     0.078    26.010     8.344
    58   7 N        2.623    -0.169    24.677     7.378
    59   6 C        2.901    -0.050    29.233     8.865
    60   6 C        3.147     0.077    26.024     8.345
    61   7 N        2.621    -0.171    24.708     7.382
    62   1 H        0.926     0.035     2.521     2.483
    63   1 H        0.926     0.036     2.509     2.477
    64   1 H        0.926     0.036     2.509     2.477
    65   1 H        0.926     0.035     2.521     2.483
    66   1 H        0.926     0.050     2.319     2.381
    67   1 H        0.926     0.035     2.513     2.479
    68   1 H        0.926     0.035     2.514     2.479
    69   1 H        0.926     0.049     2.328     2.386
    70   1 H        0.926     0.035     2.514     2.479
    71   1 H        0.926     0.035     2.513     2.479
    72   1 H        0.926     0.050     2.319     2.381
    73   6 C        1.992    -0.028    31.798     9.107
    74   6 C        1.992    -0.028    31.792     9.106
    75   6 C        1.992    -0.028    31.793     9.106
    76   6 C        1.992    -0.028    31.792     9.106
    77   6 C        1.992    -0.028    31.793     9.106
    78   6 C        1.991    -0.028    31.794     9.106
    79   6 C        1.991    -0.028    31.794     9.106
    80   6 C        1.991    -0.028    31.794     9.106
    81   6 C        1.991    -0.028    31.793     9.106
    82   6 C        1.992    -0.028    31.793     9.106
    83   6 C        1.992    -0.028    31.792     9.106
    84   6 C        1.992    -0.028    31.793     9.106
    85   6 C        1.992    -0.028    31.792     9.106
    86   6 C        1.992    -0.028    31.797     9.106
    87  29 Cu       2.950     0.199   146.164    27.529
    88   6 C        3.022    -0.051    29.231     8.869
    89   6 C        3.021    -0.049    29.195     8.863
    90   6 C        3.163     0.079    25.929     8.323
    91   6 C        2.953     0.018    27.600     8.617
    92   6 C        3.163     0.079    25.929     8.323
    93   6 C        3.021    -0.049    29.197     8.863
    94   6 C        3.022    -0.051    29.231     8.869
    95   6 C        3.148     0.077    26.033     8.346
    96   7 N        2.620    -0.172    24.735     7.386
    97   6 C        2.901    -0.048    29.182     8.857
    98   6 C        3.148     0.077    26.034     8.346
    99   6 C        3.022    -0.051    29.232     8.869
   100   6 C        3.021    -0.049    29.195     8.863
   101   6 C        3.163     0.079    25.930     8.323
   102   7 N        2.620    -0.172    24.732     7.386
   103   6 C        2.953     0.018    27.597     8.616
   104   6 C        3.163     0.079    25.930     8.323
   105   6 C        3.021    -0.049    29.197     8.863
   106   6 C        3.022    -0.051    29.232     8.869
   107   6 C        3.148     0.077    26.034     8.347
   108   7 N        2.620    -0.172    24.732     7.386
   109   6 C        2.901    -0.048    29.182     8.857
   110   6 C        3.148     0.077    26.033     8.346
   111   7 N        2.620    -0.172    24.735     7.386
   112   1 H        0.926     0.034     2.527     2.486
   113   1 H        0.926     0.035     2.520     2.482
   114   1 H        0.926     0.035     2.519     2.482
   115   1 H        0.926     0.034     2.527     2.486
   116   1 H        0.926     0.050     2.315     2.380
   117   1 H        0.926     0.034     2.527     2.486
   118   1 H        0.926     0.035     2.518     2.481
   119   1 H        0.926     0.035     2.517     2.481
   120   1 H        0.926     0.034     2.527     2.486
   121   1 H        0.926     0.050     2.315     2.380
   122  29 Cu       2.951     0.199   146.156    27.528
   123   6 C        3.022    -0.051    29.232     8.869
   124   6 C        3.021    -0.049    29.198     8.864
   125   6 C        3.163     0.079    25.929     8.323
   126   6 C        2.953     0.018    27.598     8.617
   127   6 C        3.163     0.079    25.930     8.323
   128   6 C        3.021    -0.049    29.194     8.863
   129   6 C        3.022    -0.051    29.231     8.869
   130   6 C        3.148     0.076    26.036     8.347
   131   7 N        2.620    -0.172    24.733     7.386
   132   6 C        2.901    -0.047    29.178     8.857
   133   6 C        3.148     0.076    26.037     8.347
   134   6 C        3.022    -0.051    29.232     8.869
   135   6 C        3.022    -0.049    29.197     8.863
   136   6 C        3.162     0.079    25.932     8.324
   137   7 N        2.620    -0.172    24.731     7.386
   138   6 C        2.953     0.018    27.598     8.616
   139   6 C        3.163     0.079    25.931     8.323
   140   6 C        3.022    -0.049    29.196     8.863
   141   6 C        3.022    -0.051    29.232     8.869
   142   6 C        3.149     0.076    26.036     8.347
   143   7 N        2.620    -0.172    24.731     7.386
   144   6 C        2.902    -0.047    29.178     8.857
   145   6 C        3.149     0.076    26.036     8.347
   146   7 N        2.620    -0.172    24.732     7.386
   147   1 H        0.926     0.034     2.526     2.486
   148   1 H        0.926     0.035     2.517     2.481
   149   1 H        0.926     0.035     2.519     2.482
   150   1 H        0.926     0.034     2.527     2.486
   151   1 H        0.926     0.050     2.314     2.379
   152   1 H        0.926     0.034     2.527     2.486
   153   1 H        0.926     0.035     2.517     2.481
   154   1 H        0.926     0.035     2.518     2.482
   155   1 H        0.926     0.034     2.527     2.486
   156   1 H        0.926     0.050     2.314     2.379
   157  29 Cu       2.952     0.200   146.151    27.528
   158   6 C        3.022    -0.051    29.232     8.869
   159   6 C        3.022    -0.049    29.195     8.863
   160   6 C        3.162     0.079    25.931     8.323
   161   6 C        2.953     0.018    27.598     8.616
   162   6 C        3.162     0.079    25.931     8.323
   163   6 C        3.022    -0.049    29.197     8.863
   164   6 C        3.022    -0.051    29.232     8.869
   165   6 C        3.148     0.076    26.038     8.347
   166   7 N        2.621    -0.172    24.731     7.386
   167   6 C        2.901    -0.047    29.176     8.857
   168   6 C        3.148     0.076    26.039     8.347
   169   6 C        3.022    -0.051    29.232     8.869
   170   6 C        3.022    -0.049    29.196     8.863
   171   6 C        3.162     0.079    25.932     8.324
   172   7 N        2.621    -0.172    24.731     7.386
   173   6 C        2.953     0.018    27.598     8.616
   174   6 C        3.162     0.079    25.932     8.324
   175   6 C        3.022    -0.049    29.196     8.863
   176   6 C        3.022    -0.051    29.232     8.869
   177   6 C        3.148     0.076    26.038     8.347
   178   7 N        2.621    -0.172    24.731     7.386
   179   6 C        2.901    -0.047    29.176     8.857
   180   6 C        3.148     0.076    26.038     8.347
   181   7 N        2.620    -0.172    24.731     7.386
   182   1 H        0.926     0.034     2.526     2.486
   183   1 H        0.926     0.035     2.519     2.482
   184   1 H        0.926     0.035     2.518     2.481
   185   1 H        0.926     0.034     2.526     2.485
   186   1 H        0.926     0.050     2.314     2.379
   187   1 H        0.926     0.034     2.526     2.486
   188   1 H        0.926     0.035     2.518     2.482
   189   1 H        0.926     0.035     2.518     2.482
   190   1 H        0.926     0.034     2.526     2.486
   191   1 H        0.926     0.050     2.314     2.379
   192  29 Cu       2.952     0.200   146.152    27.528
   193   6 C        3.022    -0.051    29.232     8.869
   194   6 C        3.022    -0.049    29.196     8.863
   195   6 C        3.162     0.079    25.932     8.324
   196   6 C        2.953     0.018    27.598     8.616
   197   6 C        3.162     0.079    25.932     8.324
   198   6 C        3.022    -0.049    29.197     8.863
   199   6 C        3.022    -0.051    29.232     8.869
   200   6 C        3.148     0.076    26.038     8.347
   201   7 N        2.621    -0.172    24.731     7.386
   202   6 C        2.901    -0.047    29.176     8.857
   203   6 C        3.148     0.076    26.038     8.347
   204   6 C        3.022    -0.051    29.232     8.869
   205   6 C        3.022    -0.049    29.196     8.863
   206   6 C        3.162     0.079    25.931     8.323
   207   7 N        2.621    -0.172    24.731     7.386
   208   6 C        2.953     0.018    27.598     8.617
   209   6 C        3.162     0.079    25.931     8.323
   210   6 C        3.022    -0.049    29.197     8.863
   211   6 C        3.022    -0.051    29.232     8.869
   212   6 C        3.148     0.076    26.038     8.347
   213   7 N        2.621    -0.172    24.731     7.386
   214   6 C        2.901    -0.047    29.176     8.857
   215   6 C        3.148     0.076    26.038     8.347
   216   7 N        2.621    -0.172    24.731     7.386
   217   1 H        0.926     0.034     2.526     2.486
   218   1 H        0.926     0.035     2.519     2.482
   219   1 H        0.926     0.035     2.518     2.481
   220   1 H        0.926     0.034     2.526     2.486
   221   1 H        0.926     0.050     2.314     2.379
   222   1 H        0.926     0.034     2.526     2.486
   223   1 H        0.926     0.035     2.519     2.482
   224   1 H        0.926     0.035     2.518     2.481
   225   1 H        0.926     0.034     2.526     2.486
   226   1 H        0.926     0.050     2.314     2.379
   227  29 Cu       2.951     0.199   146.156    27.528
   228   6 C        3.022    -0.051    29.232     8.869
   229   6 C        3.022    -0.049    29.197     8.863
   230   6 C        3.162     0.079    25.931     8.323
   231   6 C        2.953     0.018    27.597     8.616
   232   6 C        3.162     0.079    25.931     8.323
   233   6 C        3.022    -0.049    29.195     8.863
   234   6 C        3.022    -0.051    29.232     8.869
   235   6 C        3.148     0.076    26.037     8.347
   236   7 N        2.620    -0.172    24.731     7.386
   237   6 C        2.901    -0.047    29.178     8.857
   238   6 C        3.148     0.076    26.036     8.347
   239   6 C        3.022    -0.051    29.231     8.869
   240   6 C        3.021    -0.049    29.197     8.863
   241   6 C        3.163     0.079    25.929     8.323
   242   7 N        2.620    -0.172    24.732     7.386
   243   6 C        2.953     0.018    27.598     8.617
   244   6 C        3.163     0.079    25.930     8.323
   245   6 C        3.021    -0.049    29.195     8.863
   246   6 C        3.022    -0.051    29.231     8.869
   247   6 C        3.148     0.076    26.037     8.347
   248   7 N        2.620    -0.172    24.733     7.386
   249   6 C        2.901    -0.047    29.178     8.857
   250   6 C        3.148     0.076    26.037     8.347
   251   7 N        2.621    -0.172    24.731     7.386
   252   1 H        0.926     0.034     2.527     2.486
   253   1 H        0.926     0.035     2.517     2.481
   254   1 H        0.926     0.035     2.519     2.482
   255   1 H        0.926     0.034     2.527     2.486
   256   1 H        0.926     0.050     2.314     2.379
   257   1 H        0.926     0.034     2.526     2.486
   258   1 H        0.926     0.035     2.518     2.481
   259   1 H        0.926     0.035     2.519     2.482
   260   1 H        0.926     0.034     2.527     2.486
   261   1 H        0.926     0.050     2.314     2.379
   262  29 Cu       2.950     0.199   146.164    27.529
   263   6 C        3.022    -0.051    29.232     8.869
   264   6 C        3.021    -0.049    29.195     8.863
   265   6 C        3.163     0.079    25.930     8.323
   266   6 C        2.953     0.018    27.597     8.616
   267   6 C        3.163     0.079    25.931     8.323
   268   6 C        3.021    -0.049    29.196     8.863
   269   6 C        3.022    -0.051    29.232     8.869
   270   6 C        3.148     0.077    26.035     8.347
   271   7 N        2.620    -0.172    24.733     7.386
   272   6 C        2.901    -0.048    29.182     8.858
   273   6 C        3.148     0.077    26.033     8.346
   274   6 C        3.022    -0.051    29.231     8.868
   275   6 C        3.021    -0.049    29.196     8.863
   276   6 C        3.163     0.079    25.930     8.323
   277   7 N        2.619    -0.172    24.736     7.387
   278   6 C        2.953     0.018    27.600     8.617
   279   6 C        3.163     0.079    25.929     8.322
   280   6 C        3.021    -0.049    29.196     8.863
   281   6 C        3.022    -0.051    29.231     8.869
   282   6 C        3.148     0.077    26.033     8.346
   283   7 N        2.620    -0.172    24.735     7.386
   284   6 C        2.901    -0.048    29.182     8.858
   285   6 C        3.148     0.077    26.034     8.347
   286   7 N        2.620    -0.172    24.732     7.386
   287   1 H        0.926     0.034     2.527     2.486
   288   1 H        0.926     0.035     2.517     2.481
   289   1 H        0.926     0.035     2.517     2.481
   290   1 H        0.926     0.034     2.527     2.486
   291   1 H        0.926     0.050     2.316     2.380
   292   1 H        0.926     0.034     2.527     2.486
   293   1 H        0.926     0.035     2.519     2.482
   294   1 H        0.926     0.035     2.519     2.482
   295   1 H        0.926     0.034     2.527     2.486
   296   1 H        0.926     0.050     2.315     2.380

 Mol. C6AA /au·bohr⁶  :    1695411.773493
 Mol. C8AA /au·bohr⁸  :   48899241.166103
 Mol. α(0) /au        :       2166.788853


Wiberg/Mayer (AO) data.
largest (>0.10) Wiberg bond orders for each atom

 ---------------------------------------------------------------------------
     #   Z sym  total        # sym  WBO       # sym  WBO       # sym  WBO
 ---------------------------------------------------------------------------
     1  29 Cu   2.333 --    22 N    0.536    16 N    0.535    10 N    0.534
                            25 N    0.534
     2   6 C    3.946 --     3 C    1.651    24 C    1.167    26 H    0.972
     3   6 C    3.950 --     2 C    1.651     4 C    1.174    27 H    0.968
     4   6 C    3.914 --    25 N    1.286     5 C    1.256     3 C    1.174
     5   6 C    3.942 --     4 C    1.256     6 C    1.256    73 C    1.170
     6   6 C    3.914 --    10 N    1.286     5 C    1.256     7 C    1.174
     7   6 C    3.950 --     8 C    1.651     6 C    1.174    28 H    0.968
     8   6 C    3.946 --     7 C    1.651     9 C    1.167    29 H    0.972
     9   6 C    3.922 --    11 C    1.354    10 N    1.250     8 C    1.167
    10   7 N    3.383 --     6 C    1.286     9 C    1.250     1 Cu   0.534
    11   6 C    3.932 --     9 C    1.354    12 C    1.353    30 H    0.964
    12   6 C    3.927 --    11 C    1.353    16 N    1.263    13 C    1.158
    13   6 C    3.950 --    14 C    1.666    12 C    1.158    31 H    0.972
    14   6 C    3.947 --    13 C    1.666    15 C    1.158    32 H    0.972
    15   6 C    3.929 --    17 C    1.351    16 N    1.265    14 C    1.158
    16   7 N    3.378 --    15 C    1.265    12 C    1.263     1 Cu   0.535
    17   6 C    3.927 --    18 C    1.352    15 C    1.351    33 H    0.964
    18   6 C    3.929 --    17 C    1.352    22 N    1.265    19 C    1.158
    19   6 C    3.947 --    20 C    1.666    18 C    1.158    34 H    0.972
    20   6 C    3.950 --    19 C    1.666    21 C    1.158    35 H    0.972
    21   6 C    3.927 --    23 C    1.353    22 N    1.263    20 C    1.158
    22   7 N    3.378 --    18 C    1.265    21 C    1.263     1 Cu   0.536
    23   6 C    3.932 --    24 C    1.354    21 C    1.353    36 H    0.964
    24   6 C    3.922 --    23 C    1.354    25 N    1.250     2 C    1.167
    25   7 N    3.383 --     4 C    1.286    24 C    1.250     1 Cu   0.534
    26   1 H    0.998 --     2 C    0.972
    27   1 H    0.998 --     3 C    0.968
    28   1 H    0.998 --     7 C    0.968
    29   1 H    0.998 --     8 C    0.972
    30   1 H    0.996 --    11 C    0.964
    31   1 H    0.998 --    13 C    0.972
    32   1 H    0.998 --    14 C    0.972
    33   1 H    0.997 --    17 C    0.964
    34   1 H    0.998 --    19 C    0.972
    35   1 H    0.998 --    20 C    0.972
    36   1 H    0.996 --    23 C    0.964
    37  29 Cu   2.334 --    52 N    0.536    58 N    0.535    61 N    0.534
                            46 N    0.534
    38   6 C    3.946 --    39 C    1.651    60 C    1.167    62 H    0.972
    39   6 C    3.950 --    38 C    1.651    40 C    1.174    63 H    0.968
    40   6 C    3.915 --    61 N    1.286    41 C    1.256    39 C    1.174
    41   6 C    3.942 --    42 C    1.256    40 C    1.256    86 C    1.170
    42   6 C    3.914 --    46 N    1.286    41 C    1.256    43 C    1.174
    43   6 C    3.950 --    44 C    1.651    42 C    1.174    64 H    0.968
    44   6 C    3.946 --    43 C    1.651    45 C    1.167    65 H    0.972
    45   6 C    3.922 --    47 C    1.354    46 N    1.250    44 C    1.167
    46   7 N    3.383 --    42 C    1.286    45 C    1.250    37 Cu   0.534
    47   6 C    3.932 --    45 C    1.354    48 C    1.353    66 H    0.964
    48   6 C    3.927 --    47 C    1.353    52 N    1.263    49 C    1.158
    49   6 C    3.950 --    50 C    1.666    48 C    1.158    67 H    0.972
    50   6 C    3.947 --    49 C    1.666    51 C    1.158    68 H    0.972
    51   6 C    3.929 --    53 C    1.352    52 N    1.265    50 C    1.158
    52   7 N    3.378 --    51 C    1.265    48 C    1.263    37 Cu   0.536
    53   6 C    3.927 --    51 C    1.352    54 C    1.352    69 H    0.964
    54   6 C    3.929 --    53 C    1.352    58 N    1.265    55 C    1.158
    55   6 C    3.947 --    56 C    1.666    54 C    1.158    70 H    0.972
    56   6 C    3.950 --    55 C    1.666    57 C    1.158    71 H    0.972
    57   6 C    3.927 --    59 C    1.352    58 N    1.263    56 C    1.158
    58   7 N    3.378 --    54 C    1.265    57 C    1.263    37 Cu   0.535
    59   6 C    3.932 --    60 C    1.354    57 C    1.352    72 H    0.964
    60   6 C    3.922 --    59 C    1.354    61 N    1.250    38 C    1.167
    61   7 N    3.383 --    40 C    1.286    60 C    1.250    37 Cu   0.534
    62   1 H    0.998 --    38 C    0.972
    63   1 H    0.998 --    39 C    0.968
    64   1 H    0.998 --    43 C    0.968
    65   1 H    0.998 --    44 C    0.972
    66   1 H    0.996 --    47 C    0.964
    67   1 H    0.998 --    49 C    0.972
    68   1 H    0.998 --    50 C    0.972
    69   1 H    0.997 --    53 C    0.964
    70   1 H    0.998 --    55 C    0.972
    71   1 H    0.998 --    56 C    0.972
    72   1 H    0.996 --    59 C    0.964
    73   6 C    3.923 --    74 C    2.576     5 C    1.170
    74   6 C    3.926 --    73 C    2.576    91 C    1.171
    75   6 C    3.923 --    76 C    2.571   103 C    1.175
    76   6 C    3.923 --    75 C    2.571   126 C    1.175
    77   6 C    3.923 --    78 C    2.569   138 C    1.177
    78   6 C    3.923 --    77 C    2.569   161 C    1.177
    79   6 C    3.923 --    80 C    2.569   173 C    1.178
    80   6 C    3.923 --    79 C    2.569   196 C    1.178
    81   6 C    3.923 --    82 C    2.569   208 C    1.177
    82   6 C    3.923 --    81 C    2.569   231 C    1.177
    83   6 C    3.923 --    84 C    2.571   243 C    1.175
    84   6 C    3.923 --    83 C    2.571   266 C    1.175
    85   6 C    3.926 --    86 C    2.576   278 C    1.171
    86   6 C    3.923 --    85 C    2.576    41 C    1.170
    87  29 Cu   2.309 --   102 N    0.530   108 N    0.530   111 N    0.529
                            96 N    0.529
    88   6 C    3.948 --    89 C    1.650   110 C    1.167   112 H    0.972
    89   6 C    3.949 --    88 C    1.650    90 C    1.174   113 H    0.969
    90   6 C    3.915 --   111 N    1.289    91 C    1.254    89 C    1.174
    91   6 C    3.930 --    90 C    1.254    92 C    1.253    74 C    1.171
    92   6 C    3.915 --    96 N    1.289    91 C    1.253    93 C    1.174
    93   6 C    3.949 --    94 C    1.650    92 C    1.174   114 H    0.968
    94   6 C    3.948 --    93 C    1.650    95 C    1.167   115 H    0.972
    95   6 C    3.921 --    97 C    1.354    96 N    1.249    94 C    1.167
    96   7 N    3.373 --    92 C    1.289    95 C    1.249    87 Cu   0.529
    97   6 C    3.926 --    95 C    1.354    98 C    1.354   116 H    0.964
    98   6 C    3.921 --    97 C    1.354   102 N    1.249    99 C    1.168
    99   6 C    3.947 --   100 C    1.649    98 C    1.168   117 H    0.972
   100   6 C    3.949 --    99 C    1.649   101 C    1.175   118 H    0.968
   101   6 C    3.914 --   102 N    1.289   103 C    1.252   100 C    1.175
   102   7 N    3.374 --   101 C    1.289    98 C    1.249    87 Cu   0.530
   103   6 C    3.930 --   101 C    1.252   104 C    1.252    75 C    1.175
   104   6 C    3.914 --   108 N    1.290   103 C    1.252   105 C    1.175
   105   6 C    3.949 --   106 C    1.649   104 C    1.175   119 H    0.968
   106   6 C    3.947 --   105 C    1.649   107 C    1.168   120 H    0.972
   107   6 C    3.921 --   109 C    1.354   108 N    1.249   106 C    1.168
   108   7 N    3.374 --   104 C    1.290   107 C    1.249    87 Cu   0.530
   109   6 C    3.926 --   110 C    1.354   107 C    1.354   121 H    0.964
   110   6 C    3.921 --   109 C    1.354   111 N    1.249    88 C    1.167
   111   7 N    3.373 --    90 C    1.289   110 C    1.249    87 Cu   0.529
   112   1 H    0.998 --    88 C    0.972
   113   1 H    0.998 --    89 C    0.969
   114   1 H    0.998 --    93 C    0.968
   115   1 H    0.998 --    94 C    0.972
   116   1 H    0.996 --    97 C    0.964
   117   1 H    0.998 --    99 C    0.972
   118   1 H    0.998 --   100 C    0.968
   119   1 H    0.998 --   105 C    0.968
   120   1 H    0.998 --   106 C    0.972
   121   1 H    0.996 --   109 C    0.964
   122  29 Cu   2.311 --   137 N    0.530   143 N    0.530   131 N    0.530
                           146 N    0.530
   123   6 C    3.947 --   124 C    1.649   145 C    1.168   147 H    0.972
   124   6 C    3.948 --   123 C    1.649   125 C    1.175   148 H    0.968
   125   6 C    3.914 --   146 N    1.290   126 C    1.251   124 C    1.175
   126   6 C    3.929 --   127 C    1.252   125 C    1.251    76 C    1.175
   127   6 C    3.914 --   131 N    1.289   126 C    1.252   128 C    1.175
   128   6 C    3.948 --   129 C    1.649   127 C    1.175   149 H    0.968
   129   6 C    3.947 --   128 C    1.649   130 C    1.168   150 H    0.972
   130   6 C    3.921 --   132 C    1.354   131 N    1.248   129 C    1.168
   131   7 N    3.373 --   127 C    1.289   130 C    1.248   122 Cu   0.530
   132   6 C    3.925 --   133 C    1.354   130 C    1.354   151 H    0.963
   133   6 C    3.921 --   132 C    1.354   137 N    1.248   134 C    1.168
   134   6 C    3.947 --   135 C    1.649   133 C    1.168   152 H    0.972
   135   6 C    3.948 --   134 C    1.649   136 C    1.176   153 H    0.967
   136   6 C    3.914 --   137 N    1.290   138 C    1.251   135 C    1.176
   137   7 N    3.373 --   136 C    1.290   133 C    1.248   122 Cu   0.530
   138   6 C    3.929 --   139 C    1.251   136 C    1.251    77 C    1.177
   139   6 C    3.914 --   143 N    1.290   138 C    1.251   140 C    1.176
   140   6 C    3.948 --   141 C    1.649   139 C    1.176   154 H    0.967
   141   6 C    3.947 --   140 C    1.649   142 C    1.168   155 H    0.972
   142   6 C    3.921 --   144 C    1.354   143 N    1.248   141 C    1.168
   143   7 N    3.373 --   139 C    1.290   142 C    1.248   122 Cu   0.530
   144   6 C    3.925 --   142 C    1.354   145 C    1.354   156 H    0.963
   145   6 C    3.921 --   144 C    1.354   146 N    1.248   123 C    1.168
   146   7 N    3.373 --   125 C    1.290   145 C    1.248   122 Cu   0.530
   147   1 H    0.998 --   123 C    0.972
   148   1 H    0.998 --   124 C    0.968
   149   1 H    0.998 --   128 C    0.968
   150   1 H    0.998 --   129 C    0.972
   151   1 H    0.996 --   132 C    0.963
   152   1 H    0.998 --   134 C    0.972
   153   1 H    0.998 --   135 C    0.967
   154   1 H    0.998 --   140 C    0.967
   155   1 H    0.998 --   141 C    0.972
   156   1 H    0.996 --   144 C    0.963
   157  29 Cu   2.313 --   178 N    0.530   166 N    0.530   172 N    0.530
                           181 N    0.530
   158   6 C    3.947 --   159 C    1.649   180 C    1.168   182 H    0.972
   159   6 C    3.948 --   158 C    1.649   160 C    1.176   183 H    0.967
   160   6 C    3.914 --   181 N    1.290   161 C    1.251   159 C    1.176
   161   6 C    3.929 --   160 C    1.251   162 C    1.250    78 C    1.177
   162   6 C    3.914 --   166 N    1.290   161 C    1.250   163 C    1.176
   163   6 C    3.948 --   164 C    1.649   162 C    1.176   184 H    0.967
   164   6 C    3.947 --   163 C    1.649   165 C    1.168   185 H    0.972
   165   6 C    3.921 --   167 C    1.354   166 N    1.248   164 C    1.168
   166   7 N    3.373 --   162 C    1.290   165 C    1.248   157 Cu   0.530
   167   6 C    3.925 --   165 C    1.354   168 C    1.354   186 H    0.963
   168   6 C    3.921 --   167 C    1.354   172 N    1.248   169 C    1.168
   169   6 C    3.947 --   170 C    1.648   168 C    1.168   187 H    0.972
   170   6 C    3.948 --   169 C    1.648   171 C    1.176   188 H    0.967
   171   6 C    3.914 --   172 N    1.290   173 C    1.250   170 C    1.176
   172   7 N    3.373 --   171 C    1.290   168 C    1.248   157 Cu   0.530
   173   6 C    3.929 --   171 C    1.250   174 C    1.250    79 C    1.178
   174   6 C    3.914 --   178 N    1.290   173 C    1.250   175 C    1.176
   175   6 C    3.948 --   176 C    1.648   174 C    1.176   189 H    0.967
   176   6 C    3.947 --   175 C    1.648   177 C    1.168   190 H    0.972
   177   6 C    3.921 --   179 C    1.354   178 N    1.248   176 C    1.168
   178   7 N    3.373 --   174 C    1.290   177 C    1.248   157 Cu   0.530
   179   6 C    3.925 --   177 C    1.354   180 C    1.354   191 H    0.963
   180   6 C    3.921 --   179 C    1.354   181 N    1.248   158 C    1.168
   181   7 N    3.373 --   160 C    1.290   180 C    1.248   157 Cu   0.530
   182   1 H    0.998 --   158 C    0.972
   183   1 H    0.998 --   159 C    0.967
   184   1 H    0.998 --   163 C    0.967
   185   1 H    0.998 --   164 C    0.972
   186   1 H    0.996 --   167 C    0.963
   187   1 H    0.998 --   169 C    0.972
   188   1 H    0.998 --   170 C    0.967
   189   1 H    0.998 --   175 C    0.967
   190   1 H    0.998 --   176 C    0.972
   191   1 H    0.996 --   179 C    0.963
   192  29 Cu   2.313 --   201 N    0.530   216 N    0.530   213 N    0.530
                           207 N    0.530
   193   6 C    3.947 --   194 C    1.648   215 C    1.168   217 H    0.972
   194   6 C    3.948 --   193 C    1.648   195 C    1.176   218 H    0.967
   195   6 C    3.914 --   216 N    1.290   196 C    1.250   194 C    1.176
   196   6 C    3.929 --   195 C    1.250   197 C    1.250    80 C    1.178
   197   6 C    3.914 --   201 N    1.290   196 C    1.250   198 C    1.176
   198   6 C    3.948 --   199 C    1.648   197 C    1.176   219 H    0.967
   199   6 C    3.947 --   198 C    1.648   200 C    1.168   220 H    0.972
   200   6 C    3.921 --   202 C    1.354   201 N    1.248   199 C    1.168
   201   7 N    3.373 --   197 C    1.290   200 C    1.248   192 Cu   0.530
   202   6 C    3.925 --   200 C    1.354   203 C    1.354   221 H    0.963
   203   6 C    3.921 --   202 C    1.354   207 N    1.248   204 C    1.168
   204   6 C    3.947 --   205 C    1.649   203 C    1.168   222 H    0.972
   205   6 C    3.948 --   204 C    1.649   206 C    1.176   223 H    0.968
   206   6 C    3.914 --   207 N    1.290   208 C    1.251   205 C    1.176
   207   7 N    3.373 --   206 C    1.290   203 C    1.248   192 Cu   0.530
   208   6 C    3.929 --   206 C    1.251   209 C    1.251    81 C    1.177
   209   6 C    3.914 --   213 N    1.290   208 C    1.251   210 C    1.176
   210   6 C    3.948 --   211 C    1.649   209 C    1.176   224 H    0.967
   211   6 C    3.947 --   210 C    1.649   212 C    1.168   225 H    0.972
   212   6 C    3.921 --   214 C    1.354   213 N    1.248   211 C    1.168
   213   7 N    3.373 --   209 C    1.290   212 C    1.248   192 Cu   0.530
   214   6 C    3.925 --   215 C    1.354   212 C    1.354   226 H    0.963
   215   6 C    3.921 --   214 C    1.354   216 N    1.248   193 C    1.168
   216   7 N    3.373 --   195 C    1.290   215 C    1.248   192 Cu   0.530
   217   1 H    0.998 --   193 C    0.972
   218   1 H    0.998 --   194 C    0.967
   219   1 H    0.998 --   198 C    0.967
   220   1 H    0.998 --   199 C    0.972
   221   1 H    0.996 --   202 C    0.963
   222   1 H    0.998 --   204 C    0.972
   223   1 H    0.998 --   205 C    0.968
   224   1 H    0.998 --   210 C    0.967
   225   1 H    0.998 --   211 C    0.972
   226   1 H    0.996 --   214 C    0.963
   227  29 Cu   2.311 --   251 N    0.530   242 N    0.530   236 N    0.530
                           248 N    0.530
   228   6 C    3.947 --   229 C    1.649   250 C    1.168   252 H    0.972
   229   6 C    3.948 --   228 C    1.649   230 C    1.176   253 H    0.967
   230   6 C    3.914 --   251 N    1.290   231 C    1.251   229 C    1.176
   231   6 C    3.929 --   232 C    1.251   230 C    1.251    82 C    1.177
   232   6 C    3.914 --   236 N    1.290   231 C    1.251   233 C    1.176
   233   6 C    3.948 --   234 C    1.649   232 C    1.176   254 H    0.967
   234   6 C    3.947 --   233 C    1.649   235 C    1.168   255 H    0.972
   235   6 C    3.921 --   237 C    1.354   236 N    1.248   234 C    1.168
   236   7 N    3.373 --   232 C    1.290   235 C    1.248   227 Cu   0.530
   237   6 C    3.925 --   238 C    1.354   235 C    1.354   256 H    0.963
   238   6 C    3.921 --   237 C    1.354   242 N    1.248   239 C    1.168
   239   6 C    3.947 --   240 C    1.649   238 C    1.168   257 H    0.972
   240   6 C    3.948 --   239 C    1.649   241 C    1.175   258 H    0.968
   241   6 C    3.914 --   242 N    1.290   243 C    1.251   240 C    1.175
   242   7 N    3.373 --   241 C    1.290   238 C    1.248   227 Cu   0.530
   243   6 C    3.929 --   244 C    1.252   241 C    1.251    83 C    1.175
   244   6 C    3.915 --   248 N    1.289   243 C    1.252   245 C    1.175
   245   6 C    3.948 --   246 C    1.649   244 C    1.175   259 H    0.968
   246   6 C    3.947 --   245 C    1.649   247 C    1.168   260 H    0.972
   247   6 C    3.921 --   249 C    1.354   248 N    1.248   246 C    1.168
   248   7 N    3.373 --   244 C    1.289   247 C    1.248   227 Cu   0.530
   249   6 C    3.925 --   250 C    1.354   247 C    1.354   261 H    0.963
   250   6 C    3.921 --   249 C    1.354   251 N    1.248   228 C    1.168
   251   7 N    3.373 --   230 C    1.290   250 C    1.248   227 Cu   0.530
   252   1 H    0.998 --   228 C    0.972
   253   1 H    0.998 --   229 C    0.967
   254   1 H    0.998 --   233 C    0.967
   255   1 H    0.998 --   234 C    0.972
   256   1 H    0.996 --   237 C    0.963
   257   1 H    0.998 --   239 C    0.972
   258   1 H    0.998 --   240 C    0.968
   259   1 H    0.998 --   245 C    0.968
   260   1 H    0.998 --   246 C    0.972
   261   1 H    0.996 --   249 C    0.963
   262  29 Cu   2.309 --   271 N    0.530   283 N    0.530   286 N    0.529
                           277 N    0.529
   263   6 C    3.947 --   264 C    1.649   285 C    1.168   287 H    0.972
   264   6 C    3.949 --   263 C    1.649   265 C    1.175   288 H    0.968
   265   6 C    3.914 --   286 N    1.290   266 C    1.252   264 C    1.175
   266   6 C    3.930 --   265 C    1.252   267 C    1.252    84 C    1.175
   267   6 C    3.914 --   271 N    1.289   266 C    1.252   268 C    1.175
   268   6 C    3.949 --   269 C    1.649   267 C    1.175   289 H    0.968
   269   6 C    3.947 --   268 C    1.649   270 C    1.168   290 H    0.972
   270   6 C    3.921 --   272 C    1.354   271 N    1.249   269 C    1.168
   271   7 N    3.374 --   267 C    1.289   270 C    1.249   262 Cu   0.530
   272   6 C    3.926 --   273 C    1.354   270 C    1.354   291 H    0.963
   273   6 C    3.921 --   272 C    1.354   277 N    1.249   274 C    1.167
   274   6 C    3.948 --   275 C    1.650   273 C    1.167   292 H    0.972
   275   6 C    3.949 --   274 C    1.650   276 C    1.174   293 H    0.969
   276   6 C    3.915 --   277 N    1.289   278 C    1.254   275 C    1.174
   277   7 N    3.373 --   276 C    1.289   273 C    1.249   262 Cu   0.529
   278   6 C    3.930 --   276 C    1.254   279 C    1.254    85 C    1.171
   279   6 C    3.915 --   283 N    1.289   278 C    1.254   280 C    1.174
   280   6 C    3.949 --   281 C    1.650   279 C    1.174   294 H    0.968
   281   6 C    3.948 --   280 C    1.650   282 C    1.167   295 H    0.972
   282   6 C    3.921 --   284 C    1.354   283 N    1.249   281 C    1.167
   283   7 N    3.373 --   279 C    1.289   282 C    1.249   262 Cu   0.530
   284   6 C    3.926 --   285 C    1.354   282 C    1.354   296 H    0.963
   285   6 C    3.921 --   284 C    1.354   286 N    1.249   263 C    1.168
   286   7 N    3.374 --   265 C    1.290   285 C    1.249   262 Cu   0.529
   287   1 H    0.998 --   263 C    0.972
   288   1 H    0.998 --   264 C    0.968
   289   1 H    0.998 --   268 C    0.968
   290   1 H    0.998 --   269 C    0.972
   291   1 H    0.996 --   272 C    0.963
   292   1 H    0.998 --   274 C    0.972
   293   1 H    0.998 --   275 C    0.969
   294   1 H    0.998 --   280 C    0.968
   295   1 H    0.998 --   281 C    0.972
   296   1 H    0.996 --   284 C    0.963
 ---------------------------------------------------------------------------

Topologies differ in total number of bonds
Writing topology from bond orders to xtbtopo.mol

molecular dipole:
                 x           y           z       tot (Debye)
 q only:        0.001       0.000      -0.000
   full:        0.002       0.000       0.000       0.004
molecular quadrupole (traceless):
                xx          xy          yy          xz          yz          zz
 q only:      177.299       0.093     -80.117      -0.087      -1.263     -97.183
  q+dip:      254.147       0.161    -106.096      -0.048      -3.098    -148.052
   full:      202.355       0.165     -89.194      -0.063      -1.769    -113.161


           -------------------------------------------------
          | TOTAL ENERGY             -539.409599511850 Eh   |
          | GRADIENT NORM               0.000457577359 Eh/α |
          | HOMO-LUMO GAP               0.000782522628 eV   |
           -------------------------------------------------

------------------------------------------------------------------------
 * finished run on 2021/11/21 at 21:24:04.802     
------------------------------------------------------------------------
 total:
 * wall-time:     0 d,  0 h,  0 min, 17.026 sec
 *  cpu-time:     0 d,  0 h,  0 min, 17.026 sec
 * ratio c/w:     1.000 speedup
 SCF:
 * wall-time:     0 d,  0 h,  0 min, 16.831 sec
 *  cpu-time:     0 d,  0 h,  0 min, 16.831 sec
 * ratio c/w:     1.000 speedup

