      -----------------------------------------------------------      
     |                   =====================                   |     
     |                           x T B                           |     
     |                   =====================                   |     
     |                         S. Grimme                         |     
     |          Mulliken Center for Theoretical Chemistry        |     
     |                    University of Bonn                     |     
      -----------------------------------------------------------      

   * xtb version 6.4.1 (bd6e46d) compiled by 'conda@4901f00b25ba' on 2021-06-10

   xtb is free software: you can redistribute it and/or modify it under
   the terms of the GNU Lesser General Public License as published by
   the Free Software Foundation, either version 3 of the License, or
   (at your option) any later version.
   
   xtb is distributed in the hope that it will be useful,
   but WITHOUT ANY WARRANTY; without even the implied warranty of
   MERCHANTABILITY or FITNESS FOR A PARTICULAR PURPOSE.  See the
   GNU Lesser General Public License for more details.
   
   Cite this work as:
   * C. Bannwarth, E. Caldeweyher, S. Ehlert, A. Hansen, P. Pracht,
     J. Seibert, S. Spicher, S. Grimme, WIREs Comput. Mol. Sci., 2020, 11,
     e01493. DOI: 10.1002/wcms.1493
   
   for GFN2-xTB:
   * C. Bannwarth, S. Ehlert and S. Grimme., J. Chem. Theory Comput., 2019,
     15, 1652-1671. DOI: 10.1021/acs.jctc.8b01176
   for GFN1-xTB:
   * S. Grimme, C. Bannwarth, P. Shushkov, J. Chem. Theory Comput., 2017,
     13, 1989-2009. DOI: 10.1021/acs.jctc.7b00118
   for GFN0-xTB:
   * P. Pracht, E. Caldeweyher, S. Ehlert, S. Grimme, ChemRxiv, 2019, preprint.
     DOI: 10.26434/chemrxiv.8326202.v1
   for GFN-FF:
   * S. Spicher and S. Grimme, Angew. Chem. Int. Ed., 2020, 59, 15665-15673.
     DOI: 10.1002/anie.202004239
   
   for DFT-D4:
   * E. Caldeweyher, C. Bannwarth and S. Grimme, J. Chem. Phys., 2017,
     147, 034112. DOI: 10.1063/1.4993215
   * E. Caldeweyher, S. Ehlert, A. Hansen, H. Neugebauer, S. Spicher,
     C. Bannwarth and S. Grimme, J. Chem. Phys., 2019, 150, 154122.
     DOI: 10.1063/1.5090222
   * E. Caldeweyher, J.-M. Mewes, S. Ehlert and S. Grimme, Phys. Chem. Chem. Phys.
     2020, 22, 8499-8512. DOI: 10.1039/D0CP00502A
   
   for sTDA-xTB:
   * S. Grimme and C. Bannwarth, J. Chem. Phys., 2016, 145, 054103.
     DOI: 10.1063/1.4959605
   
   in the mass-spec context:
   * V. Asgeirsson, C. Bauer and S. Grimme, Chem. Sci., 2017, 8, 4879.
     DOI: 10.1039/c7sc00601b
   * J. Koopman and S. Grimme, ACS Omega 2019, 4, 12, 15120-15133.
     DOI: 10.1021/acsomega.9b02011
   
   for metadynamics refer to:
   * S. Grimme, J. Chem. Theory Comput., 2019, 155, 2847-2862
     DOI: 10.1021/acs.jctc.9b00143
   
   for SPH calculations refer to:
   * S. Spicher and S. Grimme, J. Chem. Theory Comput., 2021, 17, 1701-1714
     DOI: 10.1021/acs.jctc.0c01306
   
   with help from (in alphabetical order)
   P. Atkinson, C. Bannwarth, F. Bohle, G. Brandenburg, E. Caldeweyher
   M. Checinski, S. Dohm, S. Ehlert, S. Ehrlich, I. Gerasimov, J. Koopman
   C. Lavigne, S. Lehtola, F. März, M. Müller, F. Musil, H. Neugebauer
   J. Pisarek, C. Plett, P. Pracht, J. Seibert, P. Shushkov, S. Spicher
   M. Stahn, M. Steiner, T. Strunk, J. Stückrath, T. Rose, and J. Unsleber
   
 * started run on 2021/11/21 at 01:39:51.678     

           -------------------------------------------------
          |                Calculation Setup                |
           -------------------------------------------------

          program call               : /home/jeff/miniconda3/bin/xtb /home/jeff/chem/final-year-proejct/free_base/_2_2_outenergy/input_structure.xyz --gfn 2 --parallel 1 --etemp 300 --chrg 0 --uhf 0 -I det_control.in
          coordinate file            : /home/jeff/chem/final-year-proejct/free_base/_2_2_outenergy/input_structure.xyz
          omp threads                :                     1
          number of atoms            :                    76
          number of electrons        :                   234
          charge                     :                     0
          spin                       :                   0.0
          first test random number   :      0.89177520413459

   ID    Z sym.   atoms
    1    6 C      1-8, 10-14, 16-20, 22, 23, 38-47, 49-53, 55-59, 61, 62
    2    7 N      9, 15, 21, 24, 48, 54, 60, 63
    3    1 H      25-37, 64-76

           -------------------------------------------------
          |                 G F N 2 - x T B                 |
           -------------------------------------------------

        Reference                      10.1021/acs.jctc.8b01176
      * Hamiltonian:
        H0-scaling (s, p, d)           1.850000    2.230000    2.230000
        zeta-weighting                 0.500000
      * Dispersion:
        s8                             2.700000
        a1                             0.520000
        a2                             5.000000
        s9                             5.000000
      * Repulsion:
        kExp                           1.500000    1.000000
        rExp                           1.000000
      * Coulomb:
        alpha                          2.000000
        third order                    shell-resolved
        anisotropic                    true
        a3                             3.000000
        a5                             4.000000
        cn-shift                       1.200000
        cn-exp                         4.000000
        max-rad                        5.000000


          ...................................................
          :                      SETUP                      :
          :.................................................:
          :  # basis functions                 226          :
          :  # atomic orbitals                 226          :
          :  # shells                          126          :
          :  # electrons                       234          :
          :  max. iterations                   250          :
          :  Hamiltonian                  GFN2-xTB          :
          :  restarted?                      false          :
          :  GBSA solvation                  false          :
          :  PC potential                    false          :
          :  electronic temp.          300.0000000     K    :
          :  accuracy                    1.0000000          :
          :  -> integral cutoff          0.2500000E+02      :
          :  -> integral neglect         0.1000000E-07      :
          :  -> SCF convergence          0.1000000E-05 Eh   :
          :  -> wf. convergence          0.1000000E-03 e    :
          :  Broyden damping             0.4000000          :
          ...................................................

 iter      E             dE          RMSdq      gap      omega  full diag
   1   -128.5541954 -0.128554E+03  0.467E+00    0.88       0.0  T
   2   -128.7469433 -0.192748E+00  0.310E+00    1.15       1.0  T
   3   -128.7185907  0.283525E-01  0.143E+00    1.01       1.0  T
   4   -128.6989811  0.196096E-01  0.763E-01    1.12       1.0  T
   5   -128.7753715 -0.763904E-01  0.276E-01    1.12       1.0  T
   6   -128.7859899 -0.106184E-01  0.714E-02    1.12       1.0  T
   7   -128.7861620 -0.172067E-03  0.382E-02    1.12       1.0  T
   8   -128.7862381 -0.760897E-04  0.177E-02    1.12       1.0  T
   9   -128.7862483 -0.102119E-04  0.993E-03    1.12       1.2  T
  10   -128.7862530 -0.471207E-05  0.281E-03    1.12       4.1  T
  11   -128.7862536 -0.584527E-06  0.122E-03    1.12       9.4  T
  12   -128.7862537 -0.137664E-06  0.405E-04    1.12      28.3  T
  13   -128.7862537 -0.578527E-08  0.212E-04    1.12      54.2  T

   *** convergence criteria satisfied after 13 iterations ***

         #    Occupation            Energy/Eh            Energy/eV
      -------------------------------------------------------------
         1        2.0000           -0.6827359             -18.5782
       ...           ...                  ...                  ...
       111        2.0000           -0.3708907             -10.0925
       112        2.0000           -0.3699723             -10.0675
       113        2.0000           -0.3699682             -10.0673
       114        2.0000           -0.3677556             -10.0071
       115        2.0000           -0.3674696              -9.9994
       116        2.0000           -0.3633023              -9.8860
       117        2.0000           -0.3487678              -9.4905 (HOMO)
       118                         -0.3074854              -8.3671 (LUMO)
       119                         -0.2967445              -8.0748
       120                         -0.2963904              -8.0652
       121                         -0.2903594              -7.9011
       122                         -0.2607735              -7.0960
       ...                                ...                  ...
       226                          1.4098521              38.3640
      -------------------------------------------------------------
                  HL-Gap            0.0412824 Eh            1.1234 eV
             Fermi-level           -0.3281266 Eh           -8.9288 eV

 SCC (total)                   0 d,  0 h,  0 min,  0.232 sec
 SCC setup                      ...        0 min,  0.001 sec (  0.498%)
 Dispersion                     ...        0 min,  0.002 sec (  1.047%)
 classical contributions        ...        0 min,  0.000 sec (  0.212%)
 integral evaluation            ...        0 min,  0.024 sec ( 10.434%)
 iterations                     ...        0 min,  0.125 sec ( 54.146%)
 molecular gradient             ...        0 min,  0.077 sec ( 33.246%)
 printout                       ...        0 min,  0.001 sec (  0.411%)

         :::::::::::::::::::::::::::::::::::::::::::::::::::::
         ::                     SUMMARY                     ::
         :::::::::::::::::::::::::::::::::::::::::::::::::::::
         :: total energy            -126.503853627434 Eh    ::
         :: gradient norm              0.000298830362 Eh/a0 ::
         :: HOMO-LUMO gap              1.123351548931 eV    ::
         ::.................................................::
         :: SCC energy              -128.786253721354 Eh    ::
         :: -> isotropic ES            0.068219411146 Eh    ::
         :: -> anisotropic ES         -0.004406052950 Eh    ::
         :: -> anisotropic XC          0.081684365932 Eh    ::
         :: -> dispersion             -0.104987139225 Eh    ::
         :: repulsion energy           2.283557062585 Eh    ::
         :: add. restraining           0.000000000000 Eh    ::
         :: total charge              -0.000000000000 e     ::
         :::::::::::::::::::::::::::::::::::::::::::::::::::::

           -------------------------------------------------
          |                Property Printout                |
           -------------------------------------------------

    * Orbital Energies and Occupations

         #    Occupation            Energy/Eh            Energy/eV
      -------------------------------------------------------------
         1        2.0000           -0.6827359             -18.5782
       ...           ...                  ...                  ...
       105        2.0000           -0.4043465             -11.0028
       106        2.0000           -0.3915472             -10.6545
       107        2.0000           -0.3895904             -10.6013
       108        2.0000           -0.3871904             -10.5360
       109        2.0000           -0.3871068             -10.5337
       110        2.0000           -0.3709596             -10.0943
       111        2.0000           -0.3708907             -10.0925
       112        2.0000           -0.3699723             -10.0675
       113        2.0000           -0.3699682             -10.0673
       114        2.0000           -0.3677556             -10.0071
       115        2.0000           -0.3674696              -9.9994
       116        2.0000           -0.3633023              -9.8860
       117        2.0000           -0.3487678              -9.4905 (HOMO)
       118                         -0.3074854              -8.3671 (LUMO)
       119                         -0.2967445              -8.0748
       120                         -0.2963904              -8.0652
       121                         -0.2903594              -7.9011
       122                         -0.2607735              -7.0960
       123                         -0.2515271              -6.8444
       124                         -0.1900747              -5.1722
       125                         -0.1886401              -5.1332
       126                         -0.1772292              -4.8227
       127                         -0.1714073              -4.6642
       128                         -0.1670828              -4.5466
       ...                                ...                  ...
       226                          1.4098521              38.3640
      -------------------------------------------------------------
                  HL-Gap            0.0412824 Eh            1.1234 eV
             Fermi-level           -0.3281266 Eh           -8.9288 eV

     #   Z          covCN         q      C6AA      α(0)
     1   6 C        3.016    -0.055    29.346     8.886
     2   6 C        3.010    -0.053    29.306     8.880
     3   6 C        3.193     0.086    25.607     8.252
     4   6 C        2.952     0.013    27.722     8.636
     5   6 C        3.094     0.064    26.464     8.431
     6   6 C        3.027    -0.050    29.201     8.864
     7   6 C        3.033    -0.052    29.257     8.872
     8   6 C        3.072     0.064    26.486     8.438
     9   7 N        2.786    -0.081    22.816     7.094
    10   6 C        2.899    -0.055    29.374     8.886
    11   6 C        3.171     0.087    25.719     8.285
    12   6 C        3.012    -0.054    29.318     8.882
    13   6 C        3.009    -0.054    29.321     8.882
    14   6 C        3.174     0.086    25.708     8.281
    15   7 N        1.870    -0.321    29.181     8.007
    16   6 C        2.899    -0.057    29.419     8.893
    17   6 C        3.074     0.065    26.471     8.436
    18   6 C        3.026    -0.051    29.244     8.870
    19   6 C        3.031    -0.051    29.234     8.869
    20   6 C        3.068     0.065    26.467     8.436
    21   7 N        2.787    -0.081    22.820     7.095
    22   6 C        2.899    -0.055    29.374     8.886
    23   6 C        3.174     0.085    25.731     8.285
    24   7 N        1.870    -0.324    29.263     8.019
    25   1 H        0.926     0.018     2.759     2.598
    26   1 H        0.926     0.019     2.748     2.592
    27   1 H        0.926     0.043     2.405     2.425
    28   1 H        0.926     0.041     2.432     2.438
    29   1 H        0.860     0.214     1.037     1.595
    30   1 H        0.925     0.047     2.362     2.403
    31   1 H        0.926     0.019     2.746     2.591
    32   1 H        0.926     0.019     2.746     2.591
    33   1 H        0.926     0.046     2.374     2.409
    34   1 H        0.926     0.042     2.428     2.437
    35   1 H        0.926     0.041     2.429     2.437
    36   1 H        0.860     0.214     1.036     1.594
    37   1 H        0.925     0.047     2.362     2.403
    38   6 C        1.993    -0.031    31.861     9.116
    39   6 C        1.992    -0.031    31.862     9.116
    40   6 C        3.012    -0.054    29.318     8.882
    41   6 C        3.009    -0.054    29.321     8.882
    42   6 C        3.174     0.086    25.709     8.281
    43   6 C        2.899    -0.057    29.419     8.893
    44   6 C        3.074     0.065    26.472     8.436
    45   6 C        3.025    -0.051    29.244     8.870
    46   6 C        3.031    -0.051    29.234     8.869
    47   6 C        3.069     0.065    26.467     8.436
    48   7 N        2.787    -0.081    22.820     7.095
    49   6 C        2.899    -0.055    29.373     8.886
    50   6 C        3.174     0.085    25.733     8.285
    51   6 C        3.016    -0.055    29.347     8.886
    52   6 C        3.010    -0.054    29.316     8.882
    53   6 C        3.193     0.086    25.607     8.252
    54   7 N        1.870    -0.324    29.261     8.018
    55   6 C        2.952     0.013    27.723     8.636
    56   6 C        3.094     0.064    26.464     8.431
    57   6 C        3.027    -0.049    29.194     8.863
    58   6 C        3.033    -0.052    29.257     8.872
    59   6 C        3.072     0.064    26.485     8.438
    60   7 N        2.786    -0.081    22.818     7.095
    61   6 C        2.899    -0.055    29.375     8.887
    62   6 C        3.170     0.087    25.720     8.285
    63   7 N        1.870    -0.321    29.180     8.007
    64   1 H        0.926     0.019     2.746     2.591
    65   1 H        0.926     0.019     2.746     2.591
    66   1 H        0.926     0.046     2.374     2.409
    67   1 H        0.926     0.042     2.428     2.437
    68   1 H        0.926     0.041     2.429     2.437
    69   1 H        0.860     0.214     1.035     1.594
    70   1 H        0.925     0.047     2.362     2.403
    71   1 H        0.926     0.018     2.759     2.598
    72   1 H        0.926     0.020     2.740     2.589
    73   1 H        0.926     0.043     2.412     2.429
    74   1 H        0.926     0.041     2.432     2.439
    75   1 H        0.860     0.214     1.037     1.595
    76   1 H        0.925     0.047     2.362     2.403

 Mol. C6AA /au·bohr⁶  :      91317.136351
 Mol. C8AA /au·bohr⁸  :    2320725.232527
 Mol. α(0) /au        :        485.993678


Wiberg/Mayer (AO) data.
largest (>0.10) Wiberg bond orders for each atom

 ---------------------------------------------------------------------------
     #   Z sym  total        # sym  WBO       # sym  WBO       # sym  WBO
 ---------------------------------------------------------------------------
     1   6 C    3.960 --     2 C    1.716    23 C    1.115    25 H    0.973
     2   6 C    3.961 --     1 C    1.716     3 C    1.122    26 H    0.969
     3   6 C    3.922 --    24 N    1.359     4 C    1.250     2 C    1.122
     4   6 C    3.940 --     5 C    1.253     3 C    1.250    38 C    1.177
     5   6 C    3.907 --     4 C    1.253     6 C    1.236     9 N    1.225
     6   6 C    3.956 --     7 C    1.593     5 C    1.236    27 H    0.969
     7   6 C    3.949 --     6 C    1.593     8 C    1.224    28 H    0.973
     8   6 C    3.918 --    10 C    1.344     7 C    1.224     9 N    1.203
     9   7 N    3.590 --     5 C    1.225     8 C    1.203    29 H    0.900
    10   6 C    3.922 --    11 C    1.358     8 C    1.344    30 H    0.964
    11   6 C    3.939 --    10 C    1.358    15 N    1.324    12 C    1.107
    12   6 C    3.963 --    13 C    1.731    11 C    1.107    31 H    0.973
    13   6 C    3.962 --    12 C    1.731    14 C    1.109    32 H    0.973
    14   6 C    3.938 --    16 C    1.353    15 N    1.326    13 C    1.109
    15   7 N    3.002 --    14 C    1.326    11 C    1.324
    16   6 C    3.924 --    14 C    1.353    17 C    1.347    33 H    0.965
    17   6 C    3.921 --    16 C    1.347    18 C    1.215    21 N    1.210
    18   6 C    3.949 --    19 C    1.608    17 C    1.215    34 H    0.973
    19   6 C    3.953 --    18 C    1.608    20 C    1.215    35 H    0.973
    20   6 C    3.916 --    22 C    1.343    19 C    1.215    21 N    1.211
    21   7 N    3.586 --    20 C    1.211    17 C    1.210    36 H    0.900
    22   6 C    3.937 --    23 C    1.364    20 C    1.343    37 H    0.964
    23   6 C    3.925 --    22 C    1.364    24 N    1.302     1 C    1.115
    24   7 N    3.010 --     3 C    1.359    23 C    1.302
    25   1 H    0.999 --     1 C    0.973
    26   1 H    0.999 --     2 C    0.969
    27   1 H    0.998 --     6 C    0.969
    28   1 H    0.998 --     7 C    0.973
    29   1 H    0.954 --     9 N    0.900
    30   1 H    0.997 --    10 C    0.964
    31   1 H    0.999 --    12 C    0.973
    32   1 H    0.999 --    13 C    0.973
    33   1 H    0.997 --    16 C    0.965
    34   1 H    0.998 --    18 C    0.973
    35   1 H    0.998 --    19 C    0.973
    36   1 H    0.954 --    21 N    0.900
    37   1 H    0.997 --    22 C    0.964
    38   6 C    3.924 --    39 C    2.570     4 C    1.177
    39   6 C    3.924 --    38 C    2.570    55 C    1.177
    40   6 C    3.963 --    41 C    1.731    62 C    1.107    64 H    0.973
    41   6 C    3.962 --    40 C    1.731    42 C    1.109    65 H    0.973
    42   6 C    3.938 --    43 C    1.354    63 N    1.325    41 C    1.109
    43   6 C    3.924 --    42 C    1.354    44 C    1.347    66 H    0.965
    44   6 C    3.921 --    43 C    1.347    45 C    1.216    48 N    1.210
    45   6 C    3.949 --    46 C    1.608    44 C    1.216    67 H    0.973
    46   6 C    3.953 --    45 C    1.608    47 C    1.215    68 H    0.973
    47   6 C    3.916 --    49 C    1.343    46 C    1.215    48 N    1.211
    48   7 N    3.586 --    47 C    1.211    44 C    1.210    69 H    0.900
    49   6 C    3.937 --    50 C    1.365    47 C    1.343    70 H    0.964
    50   6 C    3.925 --    49 C    1.365    54 N    1.301    51 C    1.115
    51   6 C    3.960 --    52 C    1.716    50 C    1.115    71 H    0.973
    52   6 C    3.962 --    51 C    1.716    53 C    1.122    72 H    0.969
    53   6 C    3.922 --    54 N    1.359    55 C    1.249    52 C    1.122
    54   7 N    3.010 --    53 C    1.359    50 C    1.301
    55   6 C    3.940 --    56 C    1.254    53 C    1.249    39 C    1.177
    56   6 C    3.907 --    55 C    1.254    57 C    1.236    60 N    1.224
    57   6 C    3.956 --    58 C    1.593    56 C    1.236    73 H    0.969
    58   6 C    3.948 --    57 C    1.593    59 C    1.223    74 H    0.973
    59   6 C    3.918 --    61 C    1.344    58 C    1.223    60 N    1.203
    60   7 N    3.590 --    56 C    1.224    59 C    1.203    75 H    0.900
    61   6 C    3.922 --    62 C    1.358    59 C    1.344    76 H    0.964
    62   6 C    3.939 --    61 C    1.358    63 N    1.324    40 C    1.107
    63   7 N    3.002 --    42 C    1.325    62 C    1.324
    64   1 H    0.999 --    40 C    0.973
    65   1 H    0.999 --    41 C    0.973
    66   1 H    0.997 --    43 C    0.965
    67   1 H    0.998 --    45 C    0.973
    68   1 H    0.998 --    46 C    0.973
    69   1 H    0.954 --    48 N    0.900
    70   1 H    0.997 --    49 C    0.964
    71   1 H    0.999 --    51 C    0.973
    72   1 H    0.999 --    52 C    0.969
    73   1 H    0.998 --    57 C    0.969
    74   1 H    0.998 --    58 C    0.973
    75   1 H    0.954 --    60 N    0.900
    76   1 H    0.997 --    61 C    0.964
 ---------------------------------------------------------------------------

Topologies differ in total number of bonds
Writing topology from bond orders to xtbtopo.mol

molecular dipole:
                 x           y           z       tot (Debye)
 q only:       -0.000      -0.006      -0.011
   full:       -0.001      -0.009       0.034       0.090
molecular quadrupole (traceless):
                xx          xy          yy          xz          yz          zz
 q only:        7.963     -21.701       3.243      -1.793       0.742     -11.206
  q+dip:       25.638     -11.223      13.453       1.690       3.913     -39.092
   full:       15.459     -10.813       7.258       1.296       2.157     -22.717


           -------------------------------------------------
          | TOTAL ENERGY             -126.503853627434 Eh   |
          | GRADIENT NORM               0.000298830362 Eh/α |
          | HOMO-LUMO GAP               1.123351548931 eV   |
           -------------------------------------------------

------------------------------------------------------------------------
 * finished run on 2021/11/21 at 01:39:51.936     
------------------------------------------------------------------------
 total:
 * wall-time:     0 d,  0 h,  0 min,  0.258 sec
 *  cpu-time:     0 d,  0 h,  0 min,  0.258 sec
 * ratio c/w:     1.000 speedup
 SCF:
 * wall-time:     0 d,  0 h,  0 min,  0.232 sec
 *  cpu-time:     0 d,  0 h,  0 min,  0.232 sec
 * ratio c/w:     1.000 speedup

