      -----------------------------------------------------------      
     |                   =====================                   |     
     |                           x T B                           |     
     |                   =====================                   |     
     |                         S. Grimme                         |     
     |          Mulliken Center for Theoretical Chemistry        |     
     |                    University of Bonn                     |     
      -----------------------------------------------------------      

   * xtb version 6.4.1 (bd6e46d) compiled by 'conda@4901f00b25ba' on 2021-06-10

   xtb is free software: you can redistribute it and/or modify it under
   the terms of the GNU Lesser General Public License as published by
   the Free Software Foundation, either version 3 of the License, or
   (at your option) any later version.
   
   xtb is distributed in the hope that it will be useful,
   but WITHOUT ANY WARRANTY; without even the implied warranty of
   MERCHANTABILITY or FITNESS FOR A PARTICULAR PURPOSE.  See the
   GNU Lesser General Public License for more details.
   
   Cite this work as:
   * C. Bannwarth, E. Caldeweyher, S. Ehlert, A. Hansen, P. Pracht,
     J. Seibert, S. Spicher, S. Grimme, WIREs Comput. Mol. Sci., 2020, 11,
     e01493. DOI: 10.1002/wcms.1493
   
   for GFN2-xTB:
   * C. Bannwarth, S. Ehlert and S. Grimme., J. Chem. Theory Comput., 2019,
     15, 1652-1671. DOI: 10.1021/acs.jctc.8b01176
   for GFN1-xTB:
   * S. Grimme, C. Bannwarth, P. Shushkov, J. Chem. Theory Comput., 2017,
     13, 1989-2009. DOI: 10.1021/acs.jctc.7b00118
   for GFN0-xTB:
   * P. Pracht, E. Caldeweyher, S. Ehlert, S. Grimme, ChemRxiv, 2019, preprint.
     DOI: 10.26434/chemrxiv.8326202.v1
   for GFN-FF:
   * S. Spicher and S. Grimme, Angew. Chem. Int. Ed., 2020, 59, 15665-15673.
     DOI: 10.1002/anie.202004239
   
   for DFT-D4:
   * E. Caldeweyher, C. Bannwarth and S. Grimme, J. Chem. Phys., 2017,
     147, 034112. DOI: 10.1063/1.4993215
   * E. Caldeweyher, S. Ehlert, A. Hansen, H. Neugebauer, S. Spicher,
     C. Bannwarth and S. Grimme, J. Chem. Phys., 2019, 150, 154122.
     DOI: 10.1063/1.5090222
   * E. Caldeweyher, J.-M. Mewes, S. Ehlert and S. Grimme, Phys. Chem. Chem. Phys.
     2020, 22, 8499-8512. DOI: 10.1039/D0CP00502A
   
   for sTDA-xTB:
   * S. Grimme and C. Bannwarth, J. Chem. Phys., 2016, 145, 054103.
     DOI: 10.1063/1.4959605
   
   in the mass-spec context:
   * V. Asgeirsson, C. Bauer and S. Grimme, Chem. Sci., 2017, 8, 4879.
     DOI: 10.1039/c7sc00601b
   * J. Koopman and S. Grimme, ACS Omega 2019, 4, 12, 15120-15133.
     DOI: 10.1021/acsomega.9b02011
   
   for metadynamics refer to:
   * S. Grimme, J. Chem. Theory Comput., 2019, 155, 2847-2862
     DOI: 10.1021/acs.jctc.9b00143
   
   for SPH calculations refer to:
   * S. Spicher and S. Grimme, J. Chem. Theory Comput., 2021, 17, 1701-1714
     DOI: 10.1021/acs.jctc.0c01306
   
   with help from (in alphabetical order)
   P. Atkinson, C. Bannwarth, F. Bohle, G. Brandenburg, E. Caldeweyher
   M. Checinski, S. Dohm, S. Ehlert, S. Ehrlich, I. Gerasimov, J. Koopman
   C. Lavigne, S. Lehtola, F. März, M. Müller, F. Musil, H. Neugebauer
   J. Pisarek, C. Plett, P. Pracht, J. Seibert, P. Shushkov, S. Spicher
   M. Stahn, M. Steiner, T. Strunk, J. Stückrath, T. Rose, and J. Unsleber
   
 * started run on 2021/11/21 at 01:40:12.976     

           -------------------------------------------------
          |                Calculation Setup                |
           -------------------------------------------------

          program call               : /home/jeff/miniconda3/bin/xtb /home/jeff/chem/final-year-proejct/Fe+2_4_3_outenergy/input_structure.xyz --gfn 2 --parallel 1 --etemp 300 --chrg 0 --uhf 0 -I det_control.in
          coordinate file            : /home/jeff/chem/final-year-proejct/Fe+2_4_3_outenergy/input_structure.xyz
          omp threads                :                     1
          number of atoms            :                   115
          number of electrons        :                   388
          charge                     :                     0
          spin                       :                   0.0
          first test random number   :      0.18804815811068

   ID    Z sym.   atoms
    1   26 Fe     1, 37, 81
    2    6 C      2-9, 11-15, 17-21, 23, 24, 38-45, 47-51, 53-57, 59, 60,
                  73-80, 82-89, 91-95, 97-101, 103, 104
    3    7 N      10, 16, 22, 25, 46, 52, 58, 61, 90, 96, 102, 105
    4    1 H      26-36, 62-72, 106-115

           -------------------------------------------------
          |                 G F N 2 - x T B                 |
           -------------------------------------------------

        Reference                      10.1021/acs.jctc.8b01176
      * Hamiltonian:
        H0-scaling (s, p, d)           1.850000    2.230000    2.230000
        zeta-weighting                 0.500000
      * Dispersion:
        s8                             2.700000
        a1                             0.520000
        a2                             5.000000
        s9                             5.000000
      * Repulsion:
        kExp                           1.500000    1.000000
        rExp                           1.000000
      * Coulomb:
        alpha                          2.000000
        third order                    shell-resolved
        anisotropic                    true
        a3                             3.000000
        a5                             4.000000
        cn-shift                       1.200000
        cn-exp                         4.000000
        max-rad                        5.000000


          ...................................................
          :                      SETUP                      :
          :.................................................:
          :  # basis functions                 382          :
          :  # atomic orbitals                 379          :
          :  # shells                          201          :
          :  # electrons                       388          :
          :  max. iterations                   250          :
          :  Hamiltonian                  GFN2-xTB          :
          :  restarted?                      false          :
          :  GBSA solvation                  false          :
          :  PC potential                    false          :
          :  electronic temp.          300.0000000     K    :
          :  accuracy                    1.0000000          :
          :  -> integral cutoff          0.2500000E+02      :
          :  -> integral neglect         0.1000000E-07      :
          :  -> SCF convergence          0.1000000E-05 Eh   :
          :  -> wf. convergence          0.1000000E-03 e    :
          :  Broyden damping             0.4000000          :
          ...................................................

 iter      E             dE          RMSdq      gap      omega  full diag
   1   -209.3024749 -0.209302E+03  0.824E+00    0.00       0.0  T
   2   -201.3217021  0.798077E+01  0.954E+00    0.14       1.0  T
   3   -190.5461985  0.107755E+02  0.102E+01    0.01       1.0  T
   4   -201.1874783 -0.106413E+02  0.756E+00    0.00       1.0  T
   5   -207.2663213 -0.607884E+01  0.586E+00    0.01       1.0  T
   6   -200.4782756  0.678805E+01  0.622E+00    0.08       1.0  T
   7   -193.0757454  0.740253E+01  0.790E+00    0.09       1.0  T
   8   -207.1015203 -0.140258E+02  0.580E+00    0.05       1.0  T
   9   -203.4775346  0.362399E+01  0.742E+00    0.18       1.0  T
  10   -204.4522468 -0.974712E+00  0.675E+00    0.05       1.0  T
  11   -208.4453661 -0.399312E+01  0.464E+00    0.12       1.0  T
  12   -202.8541357  0.559123E+01  0.678E+00    0.07       1.0  T
  13   -201.7263723  0.112776E+01  0.713E+00    0.17       1.0  T
  14   -203.0242947 -0.129792E+01  0.664E+00    0.14       1.0  T
  15   -208.3896985 -0.536540E+01  0.411E+00    0.05       1.0  T
  16   -210.0350718 -0.164537E+01  0.316E+00    0.08       1.0  T
  17   -210.0652243 -0.301525E-01  0.326E+00    0.24       1.0  T
  18   -208.7427995  0.132242E+01  0.335E+00    0.05       1.0  T
  19   -208.1682651  0.574534E+00  0.377E+00    0.10       1.0  T
  20   -208.4299751 -0.261710E+00  0.357E+00    0.15       1.0  T
  21   -208.9932469 -0.563272E+00  0.279E+00    0.08       1.0  T
  22   -210.0945018 -0.110125E+01  0.246E+00    0.12       1.0  T
  23   -210.1086620 -0.141601E-01  0.248E+00    0.17       1.0  T
  24   -210.1035270  0.513499E-02  0.234E+00    0.16       1.0  T
  25   -208.8145165  0.128901E+01  0.324E+00    0.15       1.0  T
  26   -210.0860801 -0.127156E+01  0.165E+00    0.09       1.0  T
  27   -210.0608040  0.252761E-01  0.140E+00    0.07       1.0  T
  28   -209.9889501  0.718539E-01  0.133E+00    0.04       1.0  T
  29   -210.1025818 -0.113632E+00  0.142E+00    0.10       1.0  T
  30   -210.0946303  0.795151E-02  0.134E+00    0.09       1.0  T
  31   -210.0619964  0.326339E-01  0.116E+00    0.07       1.0  T
  32   -210.0479517  0.140447E-01  0.104E+00    0.06       1.0  T
  33   -209.9738165  0.741352E-01  0.106E+00    0.04       1.0  T
  34   -209.6759167  0.297900E+00  0.195E+00    0.01       1.0  T
  35   -210.0106082 -0.334692E+00  0.106E+00    0.05       1.0  T
  36   -210.1119122 -0.101304E+00  0.807E-01    0.11       1.0  T
  37   -210.1065323  0.537988E-02  0.809E-01    0.10       1.0  T
  38   -210.0256082  0.809241E-01  0.925E-01    0.05       1.0  T
  39   -209.9131912  0.112417E+00  0.135E+00    0.04       1.0  T
  40   -210.0458744 -0.132683E+00  0.951E-01    0.06       1.0  T
  41   -210.0594213 -0.135469E-01  0.861E-01    0.07       1.0  T
  42   -210.0790663 -0.196451E-01  0.791E-01    0.08       1.0  T
  43   -210.1145926 -0.355263E-01  0.611E-01    0.10       1.0  T
  44   -210.1299514 -0.153588E-01  0.442E-01    0.12       1.0  T
  45   -210.1388995 -0.894813E-02  0.220E-01    0.16       1.0  T
  46   -210.1391684 -0.268885E-03  0.207E-01    0.17       1.0  T
  47   -210.1404511 -0.128273E-02  0.178E-01    0.18       1.0  T
  48   -210.1407868 -0.335701E-03  0.132E-01    0.19       1.0  T
  49   -210.1410506 -0.263809E-03  0.124E-01    0.20       1.0  T
  50   -210.1412577 -0.207057E-03  0.808E-02    0.22       1.0  T
  51   -210.1413141 -0.564366E-04  0.432E-02    0.22       1.0  T
  52   -210.1413505 -0.364119E-04  0.225E-02    0.23       1.0  T
  53   -210.1413526 -0.204154E-05  0.161E-02    0.23       1.0  T
  54   -210.1413591 -0.648173E-05  0.154E-02    0.23       1.0  T
  55   -210.1413695 -0.103826E-04  0.149E-02    0.23       1.0  T
  56   -210.1413782 -0.877986E-05  0.147E-02    0.23       1.0  T
  57   -210.1413839 -0.564592E-05  0.130E-02    0.23       1.0  T
  58   -210.1413870 -0.308212E-05  0.110E-02    0.23       1.0  T
  59   -210.1413891 -0.213896E-05  0.900E-03    0.24       1.0  T
  60   -210.1413904 -0.129817E-05  0.742E-03    0.24       1.3  T
  61   -210.1413912 -0.830351E-06  0.592E-03    0.24       1.6  T
  62   -210.1413920 -0.759521E-06  0.412E-03    0.24       2.3  T
  63   -210.1413926 -0.625943E-06  0.246E-03    0.24       3.8  T
  64   -210.1413929 -0.301194E-06  0.118E-03    0.24       7.9  T
  65   -210.1413930 -0.996773E-07  0.239E-04    0.24      39.1  T
  66   -210.1413930  0.291851E-08  0.287E-04    0.24      32.5  T

   *** convergence criteria satisfied after 66 iterations ***

         #    Occupation            Energy/Eh            Energy/eV
      -------------------------------------------------------------
         1        2.0000           -0.6673027             -18.1582
       ...           ...                  ...                  ...
       188        2.0000           -0.3385711              -9.2130
       189        2.0000           -0.3374044              -9.1812
       190        2.0000           -0.3371721              -9.1749
       191        2.0000           -0.3371674              -9.1748
       192        1.9872           -0.3297387              -8.9726
       193        1.9790           -0.3292647              -8.9597
       194        1.9789           -0.3292589              -8.9596 (HOMO)
       195        0.0192           -0.3205392              -8.7223 (LUMO)
       196        0.0179           -0.3204740              -8.7205
       197        0.0178           -0.3204677              -8.7204
       198                         -0.3058843              -8.3235
       199                         -0.2952974              -8.0355
       ...                                ...                  ...
       379                          1.6400748              44.6287
      -------------------------------------------------------------
                  HL-Gap            0.0087197 Eh            0.2373 eV
             Fermi-level           -0.3249450 Eh           -8.8422 eV

 SCC (total)                   0 d,  0 h,  0 min,  2.165 sec
 SCC setup                      ...        0 min,  0.002 sec (  0.107%)
 Dispersion                     ...        0 min,  0.005 sec (  0.217%)
 classical contributions        ...        0 min,  0.001 sec (  0.034%)
 integral evaluation            ...        0 min,  0.047 sec (  2.158%)
 iterations                     ...        0 min,  1.959 sec ( 90.451%)
 molecular gradient             ...        0 min,  0.149 sec (  6.883%)
 printout                       ...        0 min,  0.003 sec (  0.149%)

         :::::::::::::::::::::::::::::::::::::::::::::::::::::
         ::                     SUMMARY                     ::
         :::::::::::::::::::::::::::::::::::::::::::::::::::::
         :: total energy            -206.449633156155 Eh    ::
         :: gradient norm              0.000733143436 Eh/a0 ::
         :: HOMO-LUMO gap              0.237275782835 eV    ::
         ::.................................................::
         :: SCC energy              -210.141393012388 Eh    ::
         :: -> isotropic ES           -0.021881977621 Eh    ::
         :: -> anisotropic ES          0.032275985997 Eh    ::
         :: -> anisotropic XC          0.122285395007 Eh    ::
         :: -> dispersion             -0.161306552994 Eh    ::
         :: repulsion energy           3.694005790921 Eh    ::
         :: add. restraining           0.000000000000 Eh    ::
         :: total charge               0.000000000001 e     ::
         :::::::::::::::::::::::::::::::::::::::::::::::::::::

           -------------------------------------------------
          |                Property Printout                |
           -------------------------------------------------

    * Orbital Energies and Occupations

         #    Occupation            Energy/Eh            Energy/eV
      -------------------------------------------------------------
         1        2.0000           -0.6673027             -18.1582
       ...           ...                  ...                  ...
       182        2.0000           -0.3637866              -9.8991
       183        2.0000           -0.3637787              -9.8989
       184        2.0000           -0.3593723              -9.7790
       185        2.0000           -0.3493935              -9.5075
       186        2.0000           -0.3388530              -9.2207
       187        2.0000           -0.3386175              -9.2143
       188        2.0000           -0.3385711              -9.2130
       189        2.0000           -0.3374044              -9.1812
       190        2.0000           -0.3371721              -9.1749
       191        2.0000           -0.3371674              -9.1748
       192        1.9872           -0.3297387              -8.9726
       193        1.9790           -0.3292647              -8.9597
       194        1.9789           -0.3292589              -8.9596 (HOMO)
       195        0.0192           -0.3205392              -8.7223 (LUMO)
       196        0.0179           -0.3204740              -8.7205
       197        0.0178           -0.3204677              -8.7204
       198                         -0.3058843              -8.3235
       199                         -0.2952974              -8.0355
       200                         -0.2904050              -7.9023
       201                         -0.2898812              -7.8881
       202                         -0.2898744              -7.8879
       203                         -0.2857192              -7.7748
       204                         -0.2636298              -7.1737
       205                         -0.2543679              -6.9217
       ...                                ...                  ...
       379                          1.6400748              44.6287
      -------------------------------------------------------------
                  HL-Gap            0.0087197 Eh            0.2373 eV
             Fermi-level           -0.3249450 Eh           -8.8422 eV

     #   Z          covCN         q      C6AA      α(0)
     1  26 Fe       3.083     0.561     5.147     7.318
     2   6 C        3.027    -0.054    29.319     8.882
     3   6 C        3.013    -0.054    29.328     8.883
     4   6 C        3.184     0.070    25.999     8.321
     5   6 C        2.955     0.010    27.784     8.646
     6   6 C        3.184     0.070    25.998     8.321
     7   6 C        3.013    -0.054    29.327     8.883
     8   6 C        3.027    -0.054    29.319     8.882
     9   6 C        3.160     0.064    26.255     8.377
    10   7 N        2.636    -0.214    25.678     7.526
    11   6 C        2.903    -0.060    29.500     8.906
    12   6 C        3.155     0.065    26.248     8.378
    13   6 C        3.023    -0.053    29.301     8.879
    14   6 C        3.013    -0.055    29.350     8.887
    15   6 C        3.166     0.070    26.094     8.348
    16   7 N        2.638    -0.213    25.641     7.521
    17   6 C        2.903    -0.059    29.469     8.901
    18   6 C        3.166     0.070    26.094     8.348
    19   6 C        3.013    -0.055    29.350     8.887
    20   6 C        3.023    -0.053    29.301     8.879
    21   6 C        3.155     0.065    26.249     8.378
    22   7 N        2.638    -0.213    25.640     7.520
    23   6 C        2.903    -0.060    29.500     8.906
    24   6 C        3.160     0.064    26.256     8.377
    25   7 N        2.636    -0.214    25.677     7.526
    26   1 H        0.926     0.030     2.583     2.513
    27   1 H        0.926     0.033     2.548     2.496
    28   1 H        0.926     0.033     2.547     2.496
    29   1 H        0.926     0.030     2.583     2.513
    30   1 H        0.926     0.049     2.329     2.387
    31   1 H        0.926     0.031     2.578     2.511
    32   1 H        0.926     0.031     2.573     2.508
    33   1 H        0.926     0.047     2.354     2.399
    34   1 H        0.926     0.031     2.573     2.508
    35   1 H        0.926     0.031     2.577     2.511
    36   1 H        0.926     0.049     2.329     2.387
    37  26 Fe       3.083     0.561     5.147     7.318
    38   6 C        3.027    -0.054    29.319     8.882
    39   6 C        3.013    -0.054    29.328     8.884
    40   6 C        3.184     0.070    26.000     8.321
    41   6 C        2.955     0.010    27.784     8.646
    42   6 C        3.184     0.070    25.999     8.321
    43   6 C        3.013    -0.054    29.327     8.883
    44   6 C        3.027    -0.054    29.319     8.882
    45   6 C        3.160     0.064    26.255     8.377
    46   7 N        2.636    -0.214    25.678     7.526
    47   6 C        2.903    -0.060    29.501     8.906
    48   6 C        3.155     0.065    26.248     8.378
    49   6 C        3.023    -0.053    29.301     8.879
    50   6 C        3.013    -0.055    29.350     8.887
    51   6 C        3.166     0.070    26.094     8.348
    52   7 N        2.638    -0.213    25.641     7.520
    53   6 C        2.903    -0.059    29.469     8.901
    54   6 C        3.166     0.070    26.094     8.348
    55   6 C        3.013    -0.055    29.350     8.887
    56   6 C        3.023    -0.053    29.301     8.879
    57   6 C        3.155     0.065    26.249     8.378
    58   7 N        2.638    -0.213    25.640     7.520
    59   6 C        2.903    -0.060    29.501     8.906
    60   6 C        3.160     0.064    26.256     8.377
    61   7 N        2.636    -0.214    25.677     7.526
    62   1 H        0.926     0.030     2.583     2.513
    63   1 H        0.926     0.033     2.547     2.496
    64   1 H        0.926     0.033     2.547     2.496
    65   1 H        0.926     0.030     2.583     2.513
    66   1 H        0.926     0.049     2.329     2.387
    67   1 H        0.926     0.031     2.577     2.511
    68   1 H        0.926     0.031     2.573     2.508
    69   1 H        0.926     0.047     2.354     2.399
    70   1 H        0.926     0.031     2.573     2.508
    71   1 H        0.926     0.031     2.577     2.511
    72   1 H        0.926     0.049     2.329     2.387
    73   6 C        1.990    -0.023    31.649     9.085
    74   6 C        1.963    -0.011    31.369     9.045
    75   6 C        1.963    -0.011    31.365     9.044
    76   6 C        1.990    -0.023    31.653     9.086
    77   6 C        1.990    -0.023    31.652     9.086
    78   6 C        1.963    -0.011    31.364     9.044
    79   6 C        1.963    -0.011    31.368     9.045
    80   6 C        1.990    -0.023    31.647     9.085
    81  26 Fe       3.077     0.564     5.145     7.317
    82   6 C        3.027    -0.054    29.318     8.882
    83   6 C        3.014    -0.054    29.330     8.884
    84   6 C        3.185     0.071    25.988     8.319
    85   6 C        2.955     0.010    27.786     8.646
    86   6 C        3.185     0.071    25.988     8.319
    87   6 C        3.014    -0.054    29.329     8.884
    88   6 C        3.027    -0.054    29.318     8.882
    89   6 C        3.160     0.064    26.257     8.377
    90   7 N        2.636    -0.215    25.705     7.530
    91   6 C        2.903    -0.059    29.459     8.900
    92   6 C        3.160     0.064    26.257     8.377
    93   6 C        3.027    -0.054    29.317     8.881
    94   6 C        3.014    -0.054    29.329     8.884
    95   6 C        3.185     0.071    25.988     8.319
    96   7 N        2.636    -0.215    25.705     7.530
    97   6 C        2.955     0.010    27.786     8.646
    98   6 C        3.185     0.071    25.989     8.319
    99   6 C        3.014    -0.054    29.329     8.884
   100   6 C        3.027    -0.054    29.318     8.882
   101   6 C        3.160     0.064    26.257     8.377
   102   7 N        2.636    -0.215    25.705     7.530
   103   6 C        2.903    -0.059    29.459     8.900
   104   6 C        3.160     0.064    26.257     8.377
   105   7 N        2.636    -0.215    25.704     7.530
   106   1 H        0.926     0.030     2.584     2.514
   107   1 H        0.926     0.033     2.550     2.497
   108   1 H        0.926     0.033     2.550     2.497
   109   1 H        0.926     0.030     2.584     2.514
   110   1 H        0.926     0.050     2.323     2.384
   111   1 H        0.926     0.030     2.584     2.514
   112   1 H        0.926     0.033     2.550     2.497
   113   1 H        0.926     0.033     2.550     2.497
   114   1 H        0.926     0.030     2.584     2.514
   115   1 H        0.926     0.050     2.323     2.383

 Mol. C6AA /au·bohr⁶  :     228129.112061
 Mol. C8AA /au·bohr⁸  :    6002931.395427
 Mol. α(0) /au        :        783.512899


Wiberg/Mayer (AO) data.
largest (>0.10) Wiberg bond orders for each atom

 ---------------------------------------------------------------------------
     #   Z sym  total        # sym  WBO       # sym  WBO       # sym  WBO
 ---------------------------------------------------------------------------
     1  26 Fe   3.278 --    22 N    0.660    16 N    0.659    25 N    0.656
                            10 N    0.656
     2   6 C    3.957 --     3 C    1.644    24 C    1.171    26 H    0.972
     3   6 C    3.962 --     2 C    1.644     4 C    1.182    27 H    0.971
     4   6 C    3.923 --    25 N    1.257     5 C    1.256     3 C    1.182
     5   6 C    3.951 --     6 C    1.257     4 C    1.256    73 C    1.182
     6   6 C    3.923 --    10 N    1.257     5 C    1.257     7 C    1.182
     7   6 C    3.962 --     8 C    1.644     6 C    1.182    28 H    0.971
     8   6 C    3.957 --     7 C    1.644     9 C    1.171    29 H    0.972
     9   6 C    3.937 --    11 C    1.361    10 N    1.217     8 C    1.171
    10   7 N    3.416 --     6 C    1.257     9 C    1.217     1 Fe   0.656
    11   6 C    3.943 --     9 C    1.361    12 C    1.361    30 H    0.963
    12   6 C    3.942 --    11 C    1.361    16 N    1.227    13 C    1.163
    13   6 C    3.962 --    14 C    1.660    12 C    1.163    31 H    0.972
    14   6 C    3.960 --    13 C    1.660    15 C    1.164    32 H    0.972
    15   6 C    3.944 --    17 C    1.358    16 N    1.239    14 C    1.164
    16   7 N    3.412 --    15 C    1.239    12 C    1.227     1 Fe   0.659
    17   6 C    3.939 --    18 C    1.358    15 C    1.358    33 H    0.965
    18   6 C    3.944 --    17 C    1.358    22 N    1.239    19 C    1.164
    19   6 C    3.960 --    20 C    1.660    18 C    1.164    34 H    0.972
    20   6 C    3.962 --    19 C    1.660    21 C    1.163    35 H    0.972
    21   6 C    3.942 --    23 C    1.361    22 N    1.227    20 C    1.163
    22   7 N    3.412 --    18 C    1.239    21 C    1.227     1 Fe   0.660
    23   6 C    3.943 --    24 C    1.361    21 C    1.361    36 H    0.963
    24   6 C    3.937 --    23 C    1.361    25 N    1.217     2 C    1.171
    25   7 N    3.416 --     4 C    1.257    24 C    1.217     1 Fe   0.656
    26   1 H    0.998 --     2 C    0.972
    27   1 H    0.998 --     3 C    0.971
    28   1 H    0.998 --     7 C    0.971
    29   1 H    0.998 --     8 C    0.972
    30   1 H    0.996 --    11 C    0.963
    31   1 H    0.998 --    13 C    0.972
    32   1 H    0.998 --    14 C    0.972
    33   1 H    0.997 --    17 C    0.965
    34   1 H    0.998 --    19 C    0.972
    35   1 H    0.998 --    20 C    0.972
    36   1 H    0.996 --    23 C    0.963
    37  26 Fe   3.279 --    58 N    0.660    52 N    0.660    46 N    0.657
                            61 N    0.656
    38   6 C    3.957 --    39 C    1.644    60 C    1.171    62 H    0.972
    39   6 C    3.962 --    38 C    1.644    40 C    1.182    63 H    0.971
    40   6 C    3.923 --    61 N    1.257    41 C    1.257    39 C    1.182
    41   6 C    3.951 --    42 C    1.257    40 C    1.257    80 C    1.181
    42   6 C    3.923 --    41 C    1.257    46 N    1.257    43 C    1.182
    43   6 C    3.962 --    44 C    1.644    42 C    1.182    64 H    0.971
    44   6 C    3.957 --    43 C    1.644    45 C    1.171    65 H    0.972
    45   6 C    3.937 --    47 C    1.361    46 N    1.217    44 C    1.171
    46   7 N    3.416 --    42 C    1.257    45 C    1.217    37 Fe   0.657
    47   6 C    3.943 --    45 C    1.361    48 C    1.361    66 H    0.963
    48   6 C    3.942 --    47 C    1.361    52 N    1.227    49 C    1.163
    49   6 C    3.962 --    50 C    1.660    48 C    1.163    67 H    0.972
    50   6 C    3.960 --    49 C    1.660    51 C    1.164    68 H    0.972
    51   6 C    3.944 --    53 C    1.358    52 N    1.239    50 C    1.164
    52   7 N    3.412 --    51 C    1.239    48 C    1.227    37 Fe   0.660
    53   6 C    3.939 --    54 C    1.358    51 C    1.358    69 H    0.965
    54   6 C    3.944 --    53 C    1.358    58 N    1.239    55 C    1.164
    55   6 C    3.960 --    56 C    1.660    54 C    1.164    70 H    0.972
    56   6 C    3.962 --    55 C    1.660    57 C    1.163    71 H    0.972
    57   6 C    3.942 --    59 C    1.361    58 N    1.227    56 C    1.163
    58   7 N    3.412 --    54 C    1.239    57 C    1.227    37 Fe   0.660
    59   6 C    3.943 --    60 C    1.361    57 C    1.361    72 H    0.963
    60   6 C    3.937 --    59 C    1.361    61 N    1.217    38 C    1.171
    61   7 N    3.416 --    40 C    1.257    60 C    1.217    37 Fe   0.656
    62   1 H    0.998 --    38 C    0.972
    63   1 H    0.998 --    39 C    0.971
    64   1 H    0.998 --    43 C    0.971
    65   1 H    0.998 --    44 C    0.972
    66   1 H    0.996 --    47 C    0.963
    67   1 H    0.998 --    49 C    0.972
    68   1 H    0.998 --    50 C    0.972
    69   1 H    0.997 --    53 C    0.965
    70   1 H    0.998 --    55 C    0.972
    71   1 H    0.998 --    56 C    0.972
    72   1 H    0.996 --    59 C    0.963
    73   6 C    3.920 --    74 C    2.476     5 C    1.182    76 C    0.204
    74   6 C    3.931 --    73 C    2.476    75 C    1.301
    75   6 C    3.928 --    76 C    2.475    74 C    1.301
    76   6 C    3.921 --    75 C    2.475    85 C    1.184    73 C    0.204
    77   6 C    3.920 --    78 C    2.475    97 C    1.183    80 C    0.203
    78   6 C    3.928 --    77 C    2.475    79 C    1.300
    79   6 C    3.931 --    80 C    2.477    78 C    1.300
    80   6 C    3.919 --    79 C    2.477    41 C    1.181    77 C    0.203
    81  26 Fe   3.244 --   102 N    0.652    90 N    0.652   105 N    0.652
                            96 N    0.652
    82   6 C    3.958 --    83 C    1.643   104 C    1.172   106 H    0.972
    83   6 C    3.961 --    82 C    1.643    84 C    1.182   107 H    0.971
    84   6 C    3.923 --   105 N    1.260    85 C    1.254    83 C    1.182
    85   6 C    3.942 --    86 C    1.255    84 C    1.254    76 C    1.184
    86   6 C    3.923 --    90 N    1.260    85 C    1.255    87 C    1.183
    87   6 C    3.961 --    88 C    1.643    86 C    1.183   108 H    0.971
    88   6 C    3.958 --    87 C    1.643    89 C    1.172   109 H    0.972
    89   6 C    3.937 --    91 C    1.361    90 N    1.215    88 C    1.172
    90   7 N    3.407 --    86 C    1.260    89 C    1.215    81 Fe   0.652
    91   6 C    3.937 --    92 C    1.361    89 C    1.361   110 H    0.963
    92   6 C    3.937 --    91 C    1.361    96 N    1.215    93 C    1.172
    93   6 C    3.958 --    94 C    1.643    92 C    1.172   111 H    0.972
    94   6 C    3.961 --    93 C    1.643    95 C    1.182   112 H    0.971
    95   6 C    3.923 --    96 N    1.260    97 C    1.255    94 C    1.182
    96   7 N    3.407 --    95 C    1.260    92 C    1.215    81 Fe   0.652
    97   6 C    3.942 --    98 C    1.255    95 C    1.255    77 C    1.183
    98   6 C    3.923 --   102 N    1.260    97 C    1.255    99 C    1.182
    99   6 C    3.961 --   100 C    1.643    98 C    1.182   113 H    0.971
   100   6 C    3.958 --    99 C    1.643   101 C    1.172   114 H    0.972
   101   6 C    3.937 --   103 C    1.361   102 N    1.215   100 C    1.172
   102   7 N    3.407 --    98 C    1.260   101 C    1.215    81 Fe   0.652
   103   6 C    3.937 --   104 C    1.361   101 C    1.361   115 H    0.963
   104   6 C    3.937 --   103 C    1.361   105 N    1.215    82 C    1.172
   105   7 N    3.407 --    84 C    1.260   104 C    1.215    81 Fe   0.652
   106   1 H    0.998 --    82 C    0.972
   107   1 H    0.998 --    83 C    0.971
   108   1 H    0.998 --    87 C    0.971
   109   1 H    0.998 --    88 C    0.972
   110   1 H    0.996 --    91 C    0.963
   111   1 H    0.998 --    93 C    0.972
   112   1 H    0.998 --    94 C    0.971
   113   1 H    0.998 --    99 C    0.971
   114   1 H    0.998 --   100 C    0.972
   115   1 H    0.996 --   103 C    0.963
 ---------------------------------------------------------------------------

Topologies differ in total number of bonds
Writing topology from bond orders to xtbtopo.mol

molecular dipole:
                 x           y           z       tot (Debye)
 q only:        0.001      -0.001      -0.002
   full:        0.001      -0.002      -0.004       0.012
molecular quadrupole (traceless):
                xx          xy          yy          xz          yz          zz
 q only:       22.384       0.139      -4.920      -0.138       0.271     -17.464
  q+dip:       57.015       0.225       6.481      -0.371       1.555     -63.497
   full:       36.849       0.193      -1.785      -0.356       0.718     -35.064


           -------------------------------------------------
          | TOTAL ENERGY             -206.449633156155 Eh   |
          | GRADIENT NORM               0.000733143436 Eh/α |
          | HOMO-LUMO GAP               0.237275782835 eV   |
           -------------------------------------------------

------------------------------------------------------------------------
 * finished run on 2021/11/21 at 01:40:15.192     
------------------------------------------------------------------------
 total:
 * wall-time:     0 d,  0 h,  0 min,  2.215 sec
 *  cpu-time:     0 d,  0 h,  0 min,  2.215 sec
 * ratio c/w:     1.000 speedup
 SCF:
 * wall-time:     0 d,  0 h,  0 min,  2.166 sec
 *  cpu-time:     0 d,  0 h,  0 min,  2.166 sec
 * ratio c/w:     1.000 speedup

