 Entering Gaussian System
 *********************************************
 Gaussian 98:
 frequency output generated by the xtb code
 *********************************************
                         Standard orientation:
 --------------------------------------------------------------------
  Center     Atomic     Atomic              Coordinates (Angstroms)
  Number     Number      Type              X           Y           Z
 --------------------------------------------------------------------
    1         27             0       11.947627   -0.006183   -0.011325
    2          6             0       14.441960   -3.415833    0.093488
    3          6             0       15.394318   -2.455882    0.093439
    4          6             0       14.704715   -1.203092    0.040541
    5          6             0       15.369741    0.024092   -0.002708
    6          6             0       14.683454    1.239476   -0.044538
    7          6             0       15.351116    2.504446   -0.087398
    8          6             0       14.382048    3.447520   -0.083812
    9          6             0       13.133933    2.748263   -0.040412
   10          7             0       13.329512    1.391979   -0.024863
   11          6             0       11.914950    3.389531   -0.000051
   12          6             0       10.708941    2.724294    0.032542
   13          6             0        9.443557    3.397241    0.072393
   14          6             0        8.496665    2.434358    0.060778
   15          6             0        9.190965    1.180458    0.014678
   16          7             0       10.544719    1.367292    0.006278
   17          6             0        8.545436   -0.036276   -0.035091
   18          6             0        9.212919   -1.241540   -0.072601
   19          6             0        8.541561   -2.507692   -0.123401
   20          6             0        9.505260   -3.453784   -0.114383
   21          6             0       10.757856   -2.758418   -0.058821
   22          7             0       10.569447   -1.404432   -0.042481
   23          6             0       11.974923   -3.401972   -0.007263
   24          6             0       13.181972   -2.738949    0.039670
   25          7             0       13.353753   -1.379525    0.016395
   26          1             0       14.559267   -4.481525    0.124422
   27          1             0       16.461317   -2.560973    0.124435
   28          1             0       16.416244    2.628476   -0.113273
   29          1             0       14.480761    4.515335   -0.106725
   30          1             0       11.905828    4.468901    0.003836
   31          1             0        9.323849    4.462938    0.102492
   32          1             0        7.428863    2.536105    0.079530
   33          1             0        7.466240   -0.045748   -0.043490
   34          1             0        7.476143   -2.628373   -0.158416
   35          1             0        9.404768   -4.521562   -0.140612
   36          1             0       11.984923   -4.481338   -0.004732
   37         27             0       43.903132    0.026068   -0.008183
   38          6             0       41.418216    3.367053    0.713617
   39          6             0       40.463097    2.426557    0.535555
   40          6             0       41.149234    1.202373    0.255508
   41          6             0       40.481080    0.004900   -0.008107
   42          6             0       41.164125   -1.185934   -0.263277
   43          6             0       40.493029   -2.421340   -0.530199
   44          6             0       41.459435   -3.353281   -0.691386
   45          6             0       42.709427   -2.676514   -0.523526
   46          7             0       42.517612   -1.343675   -0.269109
   47          6             0       43.926581   -3.318409   -0.596201
   48          6             0       45.134446   -2.672282   -0.449148
   49          6             0       46.398089   -3.344570   -0.532037
   50          6             0       47.347594   -2.396376   -0.379528
   51          6             0       46.656606   -1.152292   -0.202813
   52          7             0       45.302329   -1.331999   -0.238096
   53          6             0       47.305214    0.052932   -0.040408
   54          6             0       46.640883    1.246738    0.141484
   55          6             0       47.315542    2.499915    0.317107
   56          6             0       46.354633    3.430277    0.504104
   57          6             0       45.100349    2.738750    0.439300
   58          7             0       45.284985    1.404012    0.208176
   59          6             0       43.885285    3.364749    0.611986
   60          6             0       42.676386    2.707527    0.538352
   61          7             0       42.500777    1.375885    0.266480
   62          1             0       41.303863    4.409344    0.939413
   63          1             0       39.396342    2.527664    0.583686
   64          1             0       39.427629   -2.535415   -0.579611
   65          1             0       41.357820   -4.399899   -0.902875
   66          1             0       43.932698   -4.381710   -0.781914
   67          1             0       46.514963   -4.399411   -0.688878
   68          1             0       48.415167   -2.502086   -0.383151
   69          1             0       48.384380    0.061746   -0.052582
   70          1             0       48.381091    2.623025    0.298178
   71          1             0       46.458058    4.484835    0.671881
   72          1             0       43.878354    4.425466    0.811909
   73          6             0       16.766714    0.035748   -0.003102
   74          6             0       17.986029    0.045033   -0.005449
   75          6             0       19.322591    0.051800   -0.006269
   76          6             0       20.546410    0.058464   -0.008229
   77          6             0       21.882847    0.058151   -0.009832
   78          6             0       23.102367    0.056712   -0.009452
   79          6             0       32.748202   -0.013939   -0.023187
   80          6             0       33.967673   -0.017296   -0.023534
   81          6             0       35.304211   -0.017667   -0.023424
   82          6             0       36.527986   -0.014537   -0.019956
   83          6             0       37.864652   -0.009221   -0.016933
   84          6             0       39.083955   -0.002981   -0.012291
   85         27             0       27.925283    0.022414   -0.007198
   86          6             0       25.432478   -3.368592    0.391615
   87          6             0       24.478276   -2.416769    0.281553
   88          6             0       25.166443   -1.170875    0.133669
   89          6             0       24.498731    0.047738   -0.007903
   90          6             0       25.184240    1.256710   -0.145565
   91          6             0       24.514526    2.513283   -0.287469
   92          6             0       25.482678    3.451872   -0.389224
   93          6             0       26.731353    2.757543   -0.309160
   94          7             0       26.537610    1.409001   -0.160154
   95          6             0       27.950167    3.395669   -0.376157
   96          6             0       29.159362    2.740036   -0.304116
   97          6             0       30.418189    3.416481   -0.377944
   98          6             0       31.372342    2.463443   -0.278595
   99          6             0       30.684112    1.215988   -0.144709
  100          7             0       29.333128    1.388237   -0.159841
  101          6             0       31.351725   -0.004363   -0.019344
  102          6             0       30.666268   -1.213891    0.113057
  103          6             0       31.335976   -2.471336    0.247280
  104          6             0       30.367865   -3.408572    0.360987
  105          6             0       29.119216   -2.712812    0.293862
  106          7             0       29.312925   -1.364751    0.140583
  107          6             0       27.900456   -3.349168    0.376815
  108          6             0       26.691257   -2.693151    0.308566
  109          7             0       26.517405   -1.342796    0.151358
  110          1             0       25.317226   -4.427629    0.516410
  111          1             0       23.411087   -2.523025    0.296415
  112          1             0       23.448974    2.635071   -0.303582
  113          1             0       25.383170    4.513277   -0.507402
  114          1             0       27.958184    4.468815   -0.492712
  115          1             0       30.533523    4.476810   -0.491157
  116          1             0       32.439538    2.569844   -0.292400
  117          1             0       32.401497   -2.594365    0.251885
  118          1             0       30.467358   -4.469971    0.479193
  119          1             0       27.892478   -4.421523    0.500446
 --------------------------------------------------------------------
     1 basis functions        1 primitive gaussians
     1 alpha electrons        1 beta electrons

 Harmonic frequencies (cm**-1), IR intensities (km*mol⁻¹),
 Raman scattering activities (A**4/amu), Raman depolarization ratios,
 reduced masses (AMU), force constants (mDyne/A) and normal coordinates:
                      1                      2                      3
                        a                      a                      a 
 Frequencies --   -13.1728               -12.2583                -6.0872
 Red. masses --    11.1305                11.1677                17.3308
 Frc consts  --     0.0000                 0.0000                 0.0000
 IR Inten    --    48.0489                81.3713                60.9846
 Raman Activ --     0.0000                 0.0000                 0.0000
 Depolar     --     0.0000                 0.0000                 0.0000
 Atom AN      X      Y      Z        X      Y      Z        X      Y      Z
   1  27    -0.00   0.00  -0.05    -0.00   0.00   0.01    -0.00   0.02   0.12
   2   6     0.00  -0.00  -0.25     0.00   0.00   0.05     0.00   0.01   0.07
   3   6     0.00  -0.00  -0.12     0.00   0.00   0.03    -0.00   0.01   0.08
   4   6    -0.00   0.00  -0.04    -0.00   0.00   0.02    -0.00   0.01   0.08
   5   6    -0.00   0.00   0.02    -0.00   0.00   0.01    -0.00   0.01   0.09
   6   6     0.00   0.00  -0.04    -0.00   0.00   0.02    -0.00   0.01   0.08
   7   6    -0.00  -0.00  -0.12    -0.00   0.00   0.03    -0.00   0.01   0.08
   8   6    -0.00  -0.00  -0.24    -0.00   0.00   0.05    -0.00   0.01   0.07
   9   6    -0.00  -0.00  -0.21    -0.00   0.00   0.04    -0.00   0.01   0.06
  10   7    -0.00   0.00  -0.10    -0.00   0.00   0.02    -0.00   0.01   0.07
  11   6    -0.00   0.00  -0.24    -0.00   0.00   0.04    -0.00   0.01   0.05
  12   6     0.00   0.00  -0.09    -0.00   0.00   0.01    -0.00   0.01   0.04
  13   6     0.01   0.01   0.02    -0.00  -0.00  -0.01    -0.00   0.01   0.03
  14   6     0.01   0.00   0.25    -0.00  -0.00  -0.05    -0.00   0.01   0.03
  15   6     0.00  -0.00   0.25    -0.00   0.00  -0.05    -0.00   0.01   0.03
  16   7     0.00   0.00   0.06    -0.00   0.00  -0.01    -0.00   0.01   0.05
  17   6    -0.00  -0.00   0.38     0.00   0.00  -0.07    -0.00   0.01   0.03
  18   6    -0.01  -0.00   0.25     0.00   0.00  -0.05     0.00   0.01   0.04
  19   6    -0.01   0.00   0.24     0.00  -0.00  -0.05     0.00   0.01   0.03
  20   6    -0.01   0.00   0.01     0.00  -0.00  -0.01     0.00   0.01   0.03
  21   6    -0.00   0.00  -0.09     0.00   0.00   0.01     0.00   0.01   0.04
  22   7    -0.00   0.00   0.05     0.00   0.00  -0.01     0.00   0.01   0.05
  23   6     0.00  -0.00  -0.25     0.00   0.00   0.04     0.00   0.01   0.05
  24   6     0.00  -0.00  -0.22     0.00   0.00   0.04     0.00   0.01   0.06
  25   7     0.00  -0.00  -0.10    -0.00   0.00   0.02     0.00   0.01   0.07
  26   1     0.00  -0.00  -0.10     0.00   0.00   0.02     0.00   0.00   0.02
  27   1    -0.00  -0.00  -0.03     0.00   0.00   0.01    -0.00   0.00   0.03
  28   1     0.00  -0.00  -0.03    -0.00   0.00   0.01    -0.00   0.00   0.03
  29   1    -0.00  -0.00  -0.10    -0.00   0.00   0.02    -0.00   0.00   0.02
  30   1    -0.00   0.00  -0.10    -0.00   0.00   0.02    -0.00   0.00   0.01
  31   1     0.00   0.00  -0.02    -0.00  -0.00   0.00    -0.00   0.00   0.01
  32   1     0.00   0.00   0.11    -0.00  -0.00  -0.02    -0.00   0.00   0.01
  33   1    -0.00  -0.00   0.15     0.00   0.00  -0.03    -0.00   0.00   0.01
  34   1    -0.00   0.00   0.11     0.00  -0.00  -0.02     0.00   0.00   0.01
  35   1    -0.00   0.00  -0.02     0.00  -0.00   0.00     0.00   0.00   0.01
  36   1     0.00  -0.00  -0.10     0.00   0.00   0.02     0.00   0.00   0.01
  37  27     0.00   0.00  -0.00     0.00   0.02  -0.05     0.00   0.02   0.12
  38   6     0.00   0.01  -0.04     0.00   0.06  -0.24     0.01   0.01   0.07
  39   6     0.00   0.01  -0.01     0.00   0.03  -0.12     0.01   0.01   0.09
  40   6     0.00   0.00   0.00     0.00   0.01  -0.04     0.00   0.01   0.08
  41   6     0.00   0.00   0.01    -0.00   0.00   0.01     0.00   0.01   0.09
  42   6    -0.00   0.00   0.00    -0.00   0.02  -0.05    -0.00   0.01   0.08
  43   6    -0.00   0.01  -0.01    -0.00   0.03  -0.13    -0.01   0.01   0.09
  44   6    -0.00   0.01  -0.04    -0.00   0.05  -0.25    -0.01   0.01   0.07
  45   6    -0.00   0.01  -0.03    -0.00   0.04  -0.22    -0.01   0.01   0.06
  46   7    -0.00   0.01  -0.01    -0.00   0.02  -0.11    -0.00   0.01   0.07
  47   6    -0.00   0.01  -0.04    -0.00   0.05  -0.24    -0.01   0.01   0.05
  48   6    -0.00   0.00  -0.02    -0.01   0.01  -0.09    -0.00   0.01   0.04
  49   6    -0.00  -0.00  -0.00    -0.01  -0.01   0.01    -0.01   0.01   0.03
  50   6    -0.00  -0.01   0.04    -0.01  -0.05   0.24    -0.00   0.01   0.03
  51   6    -0.00  -0.01   0.04    -0.00  -0.04   0.25    -0.00   0.01   0.03
  52   7    -0.00  -0.00   0.01    -0.00  -0.01   0.05    -0.00   0.01   0.04
  53   6     0.00  -0.01   0.06     0.01  -0.07   0.37     0.00   0.01   0.03
  54   6     0.00  -0.01   0.04     0.01  -0.04   0.25     0.00   0.01   0.03
  55   6     0.00  -0.01   0.04     0.02  -0.05   0.24     0.00   0.01   0.03
  56   6     0.00  -0.00  -0.00     0.01  -0.01   0.02     0.01   0.01   0.03
  57   6     0.00   0.00  -0.02     0.01   0.02  -0.08     0.01   0.01   0.04
  58   7     0.00  -0.00   0.01     0.01  -0.01   0.06     0.00   0.01   0.04
  59   6     0.00   0.01  -0.04     0.00   0.05  -0.24     0.01   0.01   0.05
  60   6     0.00   0.01  -0.03     0.00   0.05  -0.21     0.01   0.01   0.06
  61   7     0.00   0.01  -0.01     0.00   0.03  -0.10     0.00   0.01   0.07
  62   1     0.00   0.00  -0.02     0.00   0.02  -0.09     0.00   0.00   0.02
  63   1     0.00   0.00  -0.00     0.00   0.01  -0.03     0.00   0.00   0.03
  64   1    -0.00   0.00  -0.00    -0.00   0.01  -0.03    -0.00   0.00   0.03
  65   1    -0.00   0.00  -0.02    -0.00   0.02  -0.10    -0.00   0.00   0.02
  66   1    -0.00   0.00  -0.02    -0.00   0.02  -0.10    -0.00   0.00   0.01
  67   1    -0.00   0.00  -0.00    -0.00   0.00  -0.02    -0.00   0.00   0.01
  68   1    -0.00  -0.00   0.02    -0.00  -0.02   0.11    -0.00   0.00   0.01
  69   1     0.00  -0.00   0.03     0.00  -0.03   0.15     0.00   0.00   0.01
  70   1     0.00  -0.00   0.02     0.01  -0.02   0.11     0.00   0.00   0.01
  71   1     0.00   0.00  -0.00     0.00   0.00  -0.02     0.00   0.00   0.01
  72   1     0.00   0.00  -0.02     0.00   0.02  -0.10     0.00   0.00   0.01
  73   6     0.00   0.00   0.07    -0.00   0.00   0.00    -0.00   0.01   0.10
  74   6     0.00   0.01   0.10    -0.00   0.00   0.00    -0.00   0.01   0.10
  75   6     0.00   0.01   0.11    -0.00   0.00   0.00    -0.00   0.01   0.10
  76   6     0.00   0.01   0.11    -0.00   0.00   0.00    -0.00   0.01   0.09
  77   6     0.00   0.01   0.10    -0.00   0.00   0.00    -0.00   0.00   0.06
  78   6     0.00   0.01   0.09    -0.00   0.00   0.00    -0.00   0.00   0.03
  79   6     0.00  -0.00   0.03    -0.00  -0.01   0.08     0.00   0.00   0.03
  80   6     0.00   0.00   0.04    -0.00  -0.01   0.10     0.00   0.00   0.07
  81   6     0.00   0.00   0.04    -0.00  -0.01   0.10     0.00   0.01   0.09
  82   6     0.00  -0.00   0.04    -0.00  -0.01   0.10     0.00   0.01   0.10
  83   6     0.00  -0.00   0.03    -0.00  -0.01   0.09     0.00   0.01   0.10
  84   6     0.00   0.00   0.03    -0.00  -0.01   0.06     0.00   0.01   0.10
  85  27     0.00  -0.01   0.00    -0.00  -0.02   0.00    -0.00  -0.04  -0.30
  86   6     0.00  -0.00  -0.00    -0.01  -0.01  -0.03    -0.00  -0.02  -0.19
  87   6     0.00  -0.00   0.04    -0.01  -0.00  -0.01    -0.00  -0.01  -0.10
  88   6     0.00   0.00   0.04    -0.00  -0.00  -0.00     0.00  -0.01  -0.07
  89   6     0.00   0.00   0.06    -0.00  -0.00   0.00    -0.00  -0.01  -0.03
  90   6    -0.00   0.00   0.04     0.00  -0.00  -0.01    -0.00  -0.01  -0.07
  91   6    -0.00  -0.00   0.03     0.00  -0.00  -0.02    -0.00  -0.01  -0.10
  92   6    -0.00  -0.00  -0.00     0.01  -0.01  -0.03    -0.00  -0.02  -0.19
  93   6    -0.00  -0.01  -0.02     0.00  -0.01  -0.03    -0.00  -0.02  -0.20
  94   7    -0.00  -0.00   0.01     0.00  -0.01  -0.01    -0.00  -0.02  -0.15
  95   6    -0.00  -0.01  -0.04     0.01  -0.01  -0.03    -0.00  -0.03  -0.25
  96   6    -0.00  -0.01  -0.03     0.00  -0.01  -0.01    -0.00  -0.02  -0.20
  97   6    -0.00  -0.01  -0.03     0.01  -0.01   0.01    -0.00  -0.02  -0.19
  98   6    -0.00  -0.00  -0.00     0.00  -0.01   0.04     0.00  -0.01  -0.09
  99   6     0.00  -0.00   0.01     0.00  -0.01   0.04     0.00  -0.01  -0.07
 100   7    -0.00  -0.00  -0.01     0.00  -0.01   0.01     0.00  -0.02  -0.14
 101   6     0.00  -0.00   0.02    -0.00  -0.01   0.06     0.00  -0.00  -0.02
 102   6     0.00  -0.00   0.01    -0.00  -0.01   0.04     0.00  -0.01  -0.07
 103   6     0.00  -0.00  -0.00    -0.01  -0.01   0.04     0.00  -0.01  -0.10
 104   6     0.00  -0.01  -0.03    -0.01  -0.01   0.01    -0.00  -0.02  -0.19
 105   6     0.00  -0.01  -0.03    -0.01  -0.01  -0.00    -0.00  -0.02  -0.20
 106   7     0.00  -0.00  -0.01    -0.00  -0.01   0.02    -0.00  -0.02  -0.15
 107   6     0.00  -0.01  -0.04    -0.01  -0.01  -0.02    -0.00  -0.03  -0.25
 108   6     0.00  -0.01  -0.01    -0.01  -0.01  -0.02    -0.00  -0.03  -0.21
 109   7     0.00  -0.00   0.01    -0.00  -0.01  -0.01    -0.00  -0.02  -0.15
 110   1     0.00  -0.00  -0.00    -0.00  -0.00  -0.01    -0.00  -0.01  -0.07
 111   1     0.00   0.00   0.02    -0.00  -0.00  -0.00    -0.00  -0.00  -0.02
 112   1    -0.00   0.00   0.02     0.00  -0.00  -0.00    -0.00  -0.00  -0.02
 113   1    -0.00  -0.00  -0.01     0.00  -0.00  -0.01    -0.00  -0.01  -0.07
 114   1    -0.00  -0.00  -0.02     0.00  -0.00  -0.01    -0.00  -0.01  -0.09
 115   1    -0.00  -0.00  -0.01     0.00  -0.00  -0.00    -0.00  -0.01  -0.07
 116   1    -0.00  -0.00   0.00     0.00  -0.00   0.02     0.00  -0.00  -0.02
 117   1     0.00  -0.00   0.00    -0.00  -0.00   0.02     0.00  -0.00  -0.02
 118   1     0.00  -0.00  -0.01    -0.00  -0.00   0.00    -0.00  -0.01  -0.07
 119   1     0.00  -0.00  -0.02    -0.00  -0.00  -0.01    -0.00  -0.01  -0.09
                      4                      5                      6
                        a                      a                      a 
 Frequencies --     2.3647                 2.7274                 2.7954
 Red. masses --    11.2337                11.6556                16.4175
 Frc consts  --     0.0000                 0.0000                 0.0000
 IR Inten    --   100.7295                76.4946                 8.0155
 Raman Activ --     0.0000                 0.0000                 0.0000
 Depolar     --     0.0000                 0.0000                 0.0000
 Atom AN      X      Y      Z        X      Y      Z        X      Y      Z
   1  27    -0.00   0.00  -0.00     0.00   0.04  -0.00    -0.00   0.15  -0.02
   2   6    -0.00   0.01   0.19    -0.02   0.00  -0.10    -0.07   0.02   0.02
   3   6    -0.00   0.01   0.14    -0.01  -0.00  -0.07    -0.05  -0.00   0.02
   4   6    -0.00   0.00   0.07    -0.01   0.00  -0.04    -0.02   0.01   0.01
   5   6     0.00   0.00  -0.00     0.00  -0.00  -0.00     0.00  -0.00   0.00
   6   6     0.00  -0.00  -0.07     0.01   0.00   0.04     0.02   0.01  -0.01
   7   6     0.00  -0.00  -0.14     0.01   0.00   0.07     0.05  -0.00  -0.02
   8   6     0.00  -0.00  -0.20     0.02   0.01   0.10     0.07   0.02  -0.03
   9   6     0.00  -0.00  -0.16     0.02   0.01   0.08     0.05   0.04  -0.03
  10   7     0.00   0.00  -0.09     0.01   0.01   0.04     0.03   0.04  -0.02
  11   6     0.00   0.00  -0.20     0.02   0.02   0.11     0.07   0.07  -0.03
  12   6     0.00   0.00  -0.16     0.02   0.03   0.08     0.05   0.09  -0.03
  13   6     0.00   0.01  -0.20     0.02   0.03   0.11     0.07   0.12  -0.04
  14   6     0.00   0.01  -0.14     0.01   0.04   0.08     0.05   0.13  -0.03
  15   6     0.00   0.00  -0.07     0.01   0.03   0.03     0.02   0.12  -0.02
  16   7     0.00   0.00  -0.09     0.01   0.03   0.04     0.03   0.10  -0.02
  17   6    -0.00   0.00   0.00    -0.00   0.04  -0.00    -0.00   0.13  -0.01
  18   6    -0.00  -0.00   0.07    -0.01   0.04  -0.04    -0.02   0.12  -0.00
  19   6    -0.00  -0.00   0.15    -0.01   0.04  -0.08    -0.05   0.13   0.00
  20   6    -0.00  -0.00   0.20    -0.02   0.04  -0.11    -0.07   0.11   0.01
  21   6    -0.00  -0.00   0.16    -0.02   0.03  -0.09    -0.05   0.09   0.01
  22   7    -0.00   0.00   0.09    -0.01   0.03  -0.05    -0.03   0.10  -0.00
  23   6    -0.00   0.00   0.20    -0.02   0.02  -0.11    -0.07   0.07   0.02
  24   6    -0.00   0.00   0.16    -0.02   0.01  -0.08    -0.05   0.04   0.01
  25   7    -0.00   0.00   0.09    -0.01   0.01  -0.05    -0.03   0.04   0.01
  26   1    -0.00   0.00   0.07    -0.01   0.00  -0.04    -0.03   0.00   0.01
  27   1    -0.00   0.00   0.04    -0.00  -0.00  -0.02    -0.01  -0.01   0.01
  28   1     0.00  -0.00  -0.04     0.00  -0.00   0.02     0.01  -0.01  -0.00
  29   1     0.00  -0.00  -0.08     0.01   0.00   0.04     0.03   0.00  -0.01
  30   1     0.00   0.00  -0.08     0.01   0.01   0.04     0.03   0.02  -0.01
  31   1     0.00   0.00  -0.08     0.01   0.01   0.04     0.03   0.03  -0.01
  32   1     0.00   0.00  -0.04     0.00   0.01   0.02     0.01   0.05  -0.01
  33   1    -0.00   0.00   0.00    -0.00   0.01  -0.00    -0.00   0.04  -0.00
  34   1    -0.00  -0.00   0.05    -0.00   0.01  -0.03    -0.01   0.04   0.00
  35   1    -0.00  -0.00   0.08    -0.01   0.01  -0.04    -0.03   0.03   0.01
  36   1    -0.00   0.00   0.07    -0.01   0.01  -0.04    -0.03   0.02   0.01
  37  27    -0.00   0.00   0.00    -0.00   0.04  -0.00    -0.00   0.15  -0.02
  38   6    -0.00  -0.04   0.19    -0.02  -0.02   0.11    -0.07   0.03  -0.04
  39   6    -0.00  -0.03   0.14    -0.01  -0.02   0.08    -0.05   0.00  -0.03
  40   6    -0.00  -0.02   0.07    -0.01  -0.01   0.04    -0.02   0.01  -0.02
  41   6     0.00  -0.00  -0.00     0.00  -0.00   0.00     0.00  -0.00  -0.00
  42   6     0.00   0.01  -0.07     0.01   0.01  -0.04     0.02   0.01   0.01
  43   6     0.00   0.03  -0.14     0.01   0.01  -0.07     0.05  -0.01   0.02
  44   6     0.00   0.04  -0.19     0.02   0.03  -0.10     0.07   0.01   0.03
  45   6     0.00   0.03  -0.15     0.02   0.03  -0.09     0.05   0.04   0.02
  46   7     0.00   0.02  -0.08     0.01   0.02  -0.05     0.03   0.04   0.01
  47   6     0.00   0.03  -0.19     0.02   0.04  -0.11     0.06   0.06   0.03
  48   6     0.00   0.03  -0.15     0.02   0.04  -0.09     0.05   0.09   0.02
  49   6     0.00   0.03  -0.19     0.02   0.05  -0.12     0.07   0.11   0.03
  50   6     0.00   0.03  -0.14     0.01   0.05  -0.09     0.05   0.13   0.01
  51   6     0.00   0.02  -0.07     0.01   0.04  -0.05     0.02   0.12  -0.00
  52   7     0.00   0.02  -0.08     0.01   0.04  -0.05     0.03   0.10   0.00
  53   6    -0.00   0.01  -0.00    -0.00   0.04  -0.01    -0.00   0.13  -0.02
  54   6    -0.00  -0.00   0.07    -0.01   0.03   0.03    -0.02   0.12  -0.03
  55   6    -0.00  -0.01   0.14    -0.01   0.03   0.08    -0.05   0.14  -0.04
  56   6    -0.00  -0.02   0.19    -0.02   0.02   0.11    -0.07   0.12  -0.05
  57   6    -0.00  -0.02   0.15    -0.02   0.01   0.09    -0.05   0.10  -0.04
  58   7    -0.00  -0.01   0.08    -0.01   0.02   0.05    -0.03   0.10  -0.03
  59   6    -0.00  -0.03   0.19    -0.02  -0.00   0.11    -0.07   0.07  -0.05
  60   6    -0.00  -0.03   0.15    -0.02  -0.01   0.09    -0.05   0.05  -0.04
  61   7    -0.00  -0.02   0.08    -0.01   0.00   0.05    -0.03   0.05  -0.02
  62   1    -0.00  -0.02   0.07    -0.01  -0.01   0.04    -0.02   0.01  -0.01
  63   1    -0.00  -0.01   0.04    -0.00  -0.01   0.02    -0.01  -0.00  -0.01
  64   1     0.00   0.01  -0.04     0.00   0.00  -0.02     0.01  -0.01   0.01
  65   1     0.00   0.01  -0.07     0.01   0.01  -0.04     0.02   0.00   0.01
  66   1     0.00   0.01  -0.07     0.01   0.01  -0.04     0.02   0.02   0.01
  67   1     0.00   0.01  -0.07     0.01   0.02  -0.04     0.02   0.03   0.01
  68   1     0.00   0.01  -0.04     0.00   0.02  -0.03     0.01   0.04   0.00
  69   1    -0.00   0.00  -0.00    -0.00   0.01  -0.00    -0.00   0.04  -0.01
  70   1    -0.00  -0.00   0.04    -0.00   0.01   0.02    -0.01   0.05  -0.01
  71   1    -0.00  -0.01   0.07    -0.01   0.00   0.04    -0.03   0.04  -0.02
  72   1    -0.00  -0.01   0.07    -0.01  -0.00   0.04    -0.02   0.02  -0.02
  73   6     0.00   0.00  -0.00     0.00  -0.01  -0.00     0.00  -0.03   0.00
  74   6     0.00   0.00  -0.00     0.00  -0.01  -0.00     0.00  -0.05   0.01
  75   6     0.00  -0.00  -0.00     0.00  -0.02  -0.00     0.00  -0.07   0.01
  76   6     0.00  -0.00  -0.00     0.00  -0.03  -0.00     0.00  -0.08   0.01
  77   6     0.00  -0.00   0.00     0.00  -0.03   0.00     0.00  -0.10   0.01
  78   6     0.00  -0.00   0.00     0.00  -0.03   0.00     0.00  -0.10   0.01
  79   6     0.00  -0.00  -0.00    -0.00  -0.03   0.00     0.00  -0.10   0.01
  80   6     0.00  -0.00  -0.00    -0.00  -0.03   0.00     0.00  -0.10   0.01
  81   6     0.00  -0.00  -0.00    -0.00  -0.03   0.00     0.00  -0.09   0.01
  82   6     0.00  -0.00  -0.00    -0.00  -0.02   0.00     0.00  -0.07   0.01
  83   6     0.00  -0.00  -0.00     0.00  -0.02   0.00     0.00  -0.05   0.00
  84   6     0.00  -0.00  -0.00    -0.00  -0.01   0.00     0.00  -0.03   0.00
  85  27     0.00  -0.01   0.00    -0.00  -0.07   0.01     0.00  -0.23   0.03
  86   6    -0.00  -0.00   0.00     0.00  -0.00   0.22     0.00  -0.11  -0.05
  87   6    -0.00  -0.00   0.00     0.00  -0.01   0.16     0.00  -0.11  -0.03
  88   6    -0.00  -0.00   0.00     0.00  -0.02   0.08     0.00  -0.11  -0.01
  89   6     0.00  -0.00   0.00     0.00  -0.03   0.00     0.00  -0.10   0.01
  90   6     0.00  -0.00  -0.00     0.00  -0.04  -0.08     0.00  -0.10   0.04
  91   6     0.00  -0.00  -0.00    -0.00  -0.05  -0.15     0.00  -0.10   0.06
  92   6     0.00  -0.00   0.00    -0.00  -0.05  -0.21     0.00  -0.10   0.08
  93   6     0.00  -0.00   0.00    -0.00  -0.05  -0.17     0.00  -0.10   0.06
  94   7     0.00  -0.00   0.00     0.00  -0.04  -0.09     0.00  -0.11   0.04
  95   6     0.00  -0.00   0.01    -0.00  -0.05  -0.21     0.00  -0.10   0.08
  96   6     0.00  -0.00   0.01    -0.00  -0.05  -0.17     0.00  -0.10   0.06
  97   6     0.00  -0.00   0.01    -0.00  -0.05  -0.21     0.00  -0.10   0.08
  98   6     0.00  -0.00   0.01    -0.00  -0.05  -0.15     0.00  -0.10   0.06
  99   6     0.00  -0.00   0.00     0.00  -0.04  -0.07     0.00  -0.10   0.03
 100   7     0.00  -0.00   0.00    -0.00  -0.04  -0.09     0.00  -0.11   0.04
 101   6     0.00  -0.00  -0.00    -0.00  -0.03   0.00     0.00  -0.11   0.01
 102   6    -0.00  -0.00  -0.01     0.00  -0.02   0.08     0.00  -0.11  -0.01
 103   6    -0.00  -0.00  -0.01     0.00  -0.01   0.16     0.00  -0.11  -0.03
 104   6    -0.00  -0.00  -0.01     0.00  -0.01   0.22    -0.00  -0.11  -0.05
 105   6    -0.00  -0.00  -0.01     0.00  -0.01   0.18     0.00  -0.11  -0.04
 106   7    -0.00  -0.00  -0.00    -0.00  -0.02   0.10     0.00  -0.12  -0.01
 107   6    -0.00  -0.00  -0.00     0.00  -0.01   0.22     0.00  -0.11  -0.05
 108   6    -0.00  -0.00  -0.00     0.00  -0.01   0.18     0.00  -0.11  -0.04
 109   7    -0.00  -0.00  -0.00     0.00  -0.02   0.10     0.00  -0.12  -0.01
 110   1    -0.00  -0.00   0.00     0.00   0.00   0.08    -0.00  -0.03  -0.02
 111   1    -0.00  -0.00   0.00     0.00  -0.00   0.05     0.00  -0.03  -0.01
 112   1     0.00  -0.00  -0.00    -0.00  -0.01  -0.05     0.00  -0.03   0.02
 113   1     0.00  -0.00   0.00    -0.00  -0.02  -0.08     0.00  -0.03   0.03
 114   1     0.00  -0.00   0.00    -0.00  -0.02  -0.08     0.00  -0.03   0.03
 115   1     0.00  -0.00   0.00    -0.00  -0.02  -0.08     0.00  -0.03   0.03
 116   1     0.00  -0.00   0.00    -0.00  -0.01  -0.05     0.00  -0.03   0.02
 117   1    -0.00  -0.00  -0.00     0.00  -0.00   0.05     0.00  -0.03  -0.01
 118   1    -0.00  -0.00  -0.00     0.00   0.00   0.08    -0.00  -0.03  -0.02
 119   1    -0.00  -0.00  -0.00     0.00   0.00   0.08    -0.00  -0.03  -0.02
                      7                      8                      9
                        a                      a                      a 
 Frequencies --     5.8749                 7.3103                 8.9280
 Red. masses --    13.4162                11.5257                11.8068
 Frc consts  --     0.0000                 0.0000                 0.0000
 IR Inten    --     0.4429                95.7728                18.2036
 Raman Activ --     0.0000                 0.0000                 0.0000
 Depolar     --     0.0000                 0.0000                 0.0000
 Atom AN      X      Y      Z        X      Y      Z        X      Y      Z
   1  27     0.00   0.01   0.12     0.00  -0.01  -0.01     0.00  -0.00  -0.04
   2   6    -0.00  -0.00  -0.01     0.10   0.07   0.00    -0.01  -0.01   0.04
   3   6    -0.00  -0.00  -0.06     0.07   0.10   0.01    -0.01  -0.01   0.09
   4   6     0.00  -0.00  -0.05     0.04   0.08   0.01    -0.00  -0.01   0.08
   5   6     0.00  -0.00  -0.08     0.00   0.10   0.02     0.00  -0.01   0.12
   6   6     0.00  -0.00  -0.04    -0.03   0.08   0.01     0.00  -0.01   0.08
   7   6     0.00  -0.00  -0.06    -0.07   0.09   0.02     0.01  -0.01   0.09
   8   6     0.00  -0.00  -0.01    -0.10   0.07   0.01     0.01  -0.01   0.03
   9   6     0.00   0.00   0.03    -0.08   0.03  -0.00     0.01  -0.00  -0.01
  10   7     0.00   0.00   0.01    -0.04   0.04   0.00     0.00  -0.00   0.02
  11   6     0.01   0.00   0.08    -0.10  -0.01  -0.01     0.01   0.00  -0.06
  12   6     0.01   0.00   0.11    -0.08  -0.04  -0.01     0.01   0.00  -0.08
  13   6     0.01   0.01   0.14    -0.10  -0.08  -0.02     0.01   0.01  -0.11
  14   6     0.01   0.01   0.15    -0.07  -0.11  -0.02     0.01   0.01  -0.10
  15   6     0.00   0.01   0.12    -0.03  -0.09  -0.01     0.00   0.01  -0.07
  16   7     0.00   0.01   0.10    -0.04  -0.05  -0.01     0.00   0.00  -0.06
  17   6    -0.00   0.01   0.13     0.00  -0.10  -0.01     0.00   0.01  -0.07
  18   6    -0.00   0.01   0.12     0.04  -0.09  -0.01    -0.00   0.01  -0.07
  19   6    -0.01   0.01   0.15     0.08  -0.11  -0.02    -0.00   0.01  -0.10
  20   6    -0.01   0.01   0.14     0.10  -0.08  -0.02    -0.01   0.01  -0.10
  21   6    -0.01   0.00   0.11     0.08  -0.04  -0.02    -0.01   0.00  -0.08
  22   7    -0.00   0.01   0.10     0.05  -0.05  -0.01    -0.00   0.00  -0.06
  23   6    -0.01   0.00   0.08     0.10  -0.00  -0.01    -0.01  -0.00  -0.06
  24   6    -0.00   0.00   0.03     0.08   0.03  -0.01    -0.01  -0.00  -0.01
  25   7    -0.00   0.00   0.01     0.05   0.04   0.00    -0.00  -0.00   0.03
  26   1    -0.00  -0.00  -0.00     0.04   0.02  -0.00    -0.00  -0.00   0.01
  27   1     0.00  -0.00  -0.03     0.02   0.04   0.01    -0.00  -0.00   0.04
  28   1     0.00  -0.00  -0.03    -0.02   0.04   0.01     0.00  -0.00   0.04
  29   1     0.00  -0.00  -0.00    -0.04   0.02   0.00     0.00  -0.00   0.01
  30   1     0.00   0.00   0.03    -0.04  -0.00  -0.00     0.00   0.00  -0.02
  31   1     0.00   0.00   0.05    -0.04  -0.02  -0.01     0.00   0.00  -0.04
  32   1     0.00   0.00   0.05    -0.02  -0.04  -0.01     0.00   0.00  -0.03
  33   1    -0.00   0.00   0.04     0.00  -0.04  -0.00     0.00   0.00  -0.02
  34   1    -0.00   0.00   0.05     0.02  -0.04  -0.01    -0.00   0.00  -0.03
  35   1    -0.00   0.00   0.04     0.04  -0.02  -0.01    -0.00   0.00  -0.04
  36   1    -0.00   0.00   0.03     0.04  -0.00  -0.01    -0.00  -0.00  -0.02
  37  27    -0.00   0.00   0.12    -0.00   0.01  -0.01    -0.00  -0.01   0.03
  38   6    -0.04  -0.02  -0.02    -0.10  -0.06  -0.01    -0.02  -0.00  -0.03
  39   6    -0.03  -0.02  -0.07    -0.07  -0.09  -0.00    -0.01   0.00  -0.09
  40   6    -0.02  -0.01  -0.05    -0.04  -0.07  -0.00    -0.01   0.00  -0.08
  41   6    -0.00  -0.02  -0.08    -0.00  -0.09   0.00    -0.00   0.01  -0.11
  42   6     0.01  -0.01  -0.05     0.03  -0.07  -0.00     0.01   0.00  -0.08
  43   6     0.03  -0.02  -0.07     0.07  -0.09  -0.00     0.01   0.00  -0.09
  44   6     0.04  -0.02  -0.01     0.09  -0.06  -0.01     0.01  -0.01  -0.03
  45   6     0.03  -0.01   0.03     0.07  -0.03  -0.01     0.01  -0.01   0.01
  46   7     0.02  -0.01   0.01     0.04  -0.04  -0.00     0.01  -0.00  -0.02
  47   6     0.04  -0.00   0.08     0.09   0.01  -0.01     0.01  -0.01   0.06
  48   6     0.03   0.01   0.11     0.07   0.04  -0.01     0.01  -0.01   0.07
  49   6     0.04   0.01   0.15     0.09   0.08  -0.00     0.01  -0.01   0.10
  50   6     0.03   0.02   0.16     0.07   0.10   0.00     0.01  -0.01   0.09
  51   6     0.01   0.02   0.13     0.03   0.08   0.00     0.00  -0.00   0.06
  52   7     0.02   0.01   0.11     0.04   0.05  -0.00     0.00  -0.01   0.06
  53   6    -0.00   0.03   0.14    -0.00   0.10   0.00    -0.00  -0.00   0.06
  54   6    -0.01   0.02   0.13    -0.04   0.08  -0.00    -0.00  -0.00   0.06
  55   6    -0.03   0.02   0.15    -0.07   0.10  -0.00    -0.01  -0.01   0.09
  56   6    -0.04   0.01   0.14    -0.10   0.07  -0.01    -0.01  -0.01   0.10
  57   6    -0.03   0.01   0.11    -0.08   0.04  -0.01    -0.01  -0.01   0.07
  58   7    -0.02   0.01   0.10    -0.04   0.05  -0.01    -0.00  -0.01   0.05
  59   6    -0.04  -0.00   0.08    -0.10   0.01  -0.01    -0.01  -0.01   0.05
  60   6    -0.03  -0.01   0.03    -0.08  -0.03  -0.01    -0.01  -0.01   0.00
  61   7    -0.02  -0.01   0.01    -0.04  -0.04  -0.01    -0.01  -0.00  -0.02
  62   1    -0.02  -0.01  -0.00    -0.04  -0.02  -0.00    -0.01  -0.00  -0.01
  63   1    -0.01  -0.01  -0.03    -0.02  -0.04  -0.00    -0.00   0.00  -0.04
  64   1     0.01  -0.01  -0.03     0.02  -0.04  -0.00     0.00   0.00  -0.04
  65   1     0.02  -0.01  -0.00     0.04  -0.02  -0.00     0.01  -0.00  -0.01
  66   1     0.01  -0.00   0.03     0.04   0.00  -0.00     0.00  -0.00   0.02
  67   1     0.01   0.00   0.05     0.04   0.02  -0.00     0.00  -0.00   0.03
  68   1     0.01   0.01   0.05     0.02   0.04   0.00     0.00  -0.00   0.03
  69   1    -0.00   0.01   0.05    -0.00   0.04   0.00    -0.00  -0.00   0.02
  70   1    -0.01   0.01   0.05    -0.02   0.04  -0.00    -0.00  -0.00   0.03
  71   1    -0.01   0.00   0.05    -0.04   0.02  -0.00    -0.00  -0.00   0.03
  72   1    -0.02  -0.00   0.03    -0.04   0.00  -0.01    -0.00  -0.00   0.02
  73   6     0.00  -0.01  -0.12     0.00   0.13   0.03     0.00  -0.01   0.17
  74   6     0.00  -0.01  -0.16     0.00   0.15   0.03     0.00  -0.01   0.20
  75   6     0.00  -0.01  -0.18     0.00   0.17   0.03     0.00  -0.01   0.22
  76   6     0.00  -0.01  -0.19     0.00   0.17   0.04     0.00  -0.01   0.22
  77   6     0.00  -0.01  -0.18     0.00   0.15   0.03     0.00  -0.01   0.21
  78   6     0.00  -0.01  -0.16     0.00   0.13   0.03     0.00  -0.01   0.19
  79   6    -0.00  -0.02  -0.17    -0.00  -0.13   0.01    -0.00   0.02  -0.17
  80   6    -0.00  -0.02  -0.19    -0.00  -0.15   0.01    -0.00   0.02  -0.20
  81   6    -0.00  -0.03  -0.20    -0.00  -0.16   0.01    -0.00   0.02  -0.21
  82   6    -0.00  -0.03  -0.19    -0.00  -0.16   0.01    -0.00   0.02  -0.20
  83   6    -0.00  -0.03  -0.17    -0.00  -0.15   0.00    -0.00   0.01  -0.19
  84   6    -0.00  -0.02  -0.13    -0.00  -0.13   0.00    -0.00   0.01  -0.16
  85  27     0.00   0.00  -0.10    -0.00  -0.00   0.01     0.00   0.01  -0.00
  86   6    -0.00   0.01   0.00    -0.09   0.07   0.01     0.02  -0.00   0.11
  87   6    -0.00   0.00  -0.07    -0.07   0.09   0.02     0.02  -0.00   0.15
  88   6    -0.00   0.00  -0.09    -0.03   0.08   0.02     0.01  -0.00   0.12
  89   6     0.00  -0.00  -0.13     0.00   0.09   0.02     0.00  -0.00   0.14
  90   6     0.00   0.00  -0.09     0.03   0.08   0.02    -0.01  -0.00   0.12
  91   6     0.00   0.00  -0.07     0.07   0.09   0.02    -0.02  -0.00   0.14
  92   6     0.01   0.01   0.00     0.09   0.07   0.01    -0.02  -0.00   0.10
  93   6     0.00   0.01   0.01     0.07   0.03   0.00    -0.02   0.00   0.05
  94   7     0.00   0.00  -0.04     0.04   0.04   0.01    -0.01   0.00   0.06
  95   6     0.01   0.01   0.05     0.09  -0.00  -0.01    -0.02   0.00  -0.01
  96   6     0.00   0.01   0.01     0.07  -0.03  -0.01    -0.02   0.01  -0.06
  97   6     0.01   0.00  -0.00     0.09  -0.07  -0.01    -0.02   0.01  -0.11
  98   6     0.00  -0.01  -0.08     0.07  -0.09  -0.00    -0.02   0.01  -0.15
  99   6     0.00  -0.01  -0.10     0.03  -0.07   0.00    -0.01   0.01  -0.11
 100   7     0.00  -0.00  -0.05     0.04  -0.04  -0.00    -0.01   0.01  -0.07
 101   6    -0.00  -0.01  -0.13    -0.00  -0.09   0.00    -0.00   0.01  -0.14
 102   6    -0.00  -0.01  -0.10    -0.03  -0.07   0.00     0.01   0.01  -0.11
 103   6    -0.00  -0.01  -0.08    -0.07  -0.09  -0.00     0.02   0.01  -0.14
 104   6    -0.00   0.00  -0.01    -0.09  -0.07  -0.01     0.02   0.01  -0.11
 105   6    -0.00   0.01   0.01    -0.07  -0.03  -0.01     0.02   0.01  -0.05
 106   7    -0.00  -0.00  -0.05    -0.04  -0.04  -0.00     0.01   0.01  -0.06
 107   6    -0.00   0.01   0.05    -0.09  -0.00  -0.01     0.02   0.00  -0.00
 108   6    -0.00   0.01   0.01    -0.07   0.03   0.00     0.02   0.00   0.05
 109   7    -0.00   0.00  -0.05    -0.04   0.04   0.01     0.01   0.00   0.07
 110   1    -0.00   0.00   0.01    -0.03   0.02   0.00     0.01  -0.00   0.03
 111   1    -0.00   0.00  -0.03    -0.02   0.04   0.01     0.01  -0.00   0.06
 112   1     0.00   0.00  -0.03     0.02   0.04   0.01    -0.00  -0.00   0.05
 113   1     0.00   0.00   0.01     0.03   0.02   0.00    -0.01  -0.00   0.03
 114   1     0.00   0.00   0.03     0.03  -0.00  -0.00    -0.01   0.00  -0.00
 115   1     0.00   0.00   0.01     0.03  -0.02  -0.00    -0.01   0.00  -0.03
 116   1     0.00  -0.00  -0.03     0.02  -0.04  -0.00    -0.00   0.00  -0.05
 117   1    -0.00  -0.00  -0.03    -0.02  -0.04  -0.00     0.00   0.00  -0.05
 118   1    -0.00   0.00   0.01    -0.03  -0.02  -0.00     0.01   0.00  -0.03
 119   1    -0.00   0.01   0.03    -0.03  -0.00  -0.00     0.01   0.00  -0.00
                     10                     11                     12
                        a                      a                      a 
 Frequencies --    19.5703                20.1240                23.3415
 Red. masses --    13.7160                10.9531                10.9624
 Frc consts  --     0.0000                 0.0000                 0.0000
 IR Inten    --    22.2135              1148.8969               170.0730
 Raman Activ --     0.0000                 0.0000                 0.0000
 Depolar     --     0.0000                 0.0000                 0.0000
 Atom AN      X      Y      Z        X      Y      Z        X      Y      Z
   1  27     0.00   0.07  -0.00     0.00   0.00   0.00     0.00   0.00   0.00
   2   6     0.11   0.11  -0.00     0.00   0.00   0.01     0.00   0.00   0.02
   3   6     0.08   0.14  -0.01     0.00   0.01   0.01     0.00   0.00   0.02
   4   6     0.04   0.12  -0.01     0.00   0.00   0.01     0.00   0.00   0.01
   5   6    -0.00   0.14  -0.02     0.00   0.00  -0.00     0.00   0.00  -0.00
   6   6    -0.04   0.12  -0.02    -0.00   0.00  -0.01     0.00   0.00  -0.01
   7   6    -0.08   0.14  -0.02    -0.00   0.00  -0.01    -0.00   0.00  -0.02
   8   6    -0.11   0.11  -0.01    -0.00   0.00  -0.01    -0.00   0.00  -0.02
   9   6    -0.09   0.07  -0.00    -0.00   0.00  -0.00    -0.00   0.00  -0.01
  10   7    -0.05   0.08  -0.01    -0.00   0.00  -0.00     0.00   0.00  -0.00
  11   6    -0.10   0.03   0.01    -0.00   0.00   0.00    -0.00   0.00   0.00
  12   6    -0.08  -0.01   0.01    -0.00  -0.00   0.01    -0.00  -0.00   0.01
  13   6    -0.10  -0.05   0.01    -0.00  -0.00   0.02    -0.00  -0.00   0.02
  14   6    -0.08  -0.08   0.01    -0.00  -0.00   0.02     0.00  -0.00   0.02
  15   6    -0.04  -0.06   0.01    -0.00  -0.00   0.01     0.00  -0.00   0.01
  16   7    -0.05  -0.01   0.01    -0.00  -0.00   0.01     0.00  -0.00   0.01
  17   6     0.00  -0.07   0.00     0.00  -0.00  -0.00     0.00  -0.00   0.00
  18   6     0.04  -0.05   0.00     0.00  -0.00  -0.01     0.00  -0.00  -0.01
  19   6     0.08  -0.08   0.01     0.00  -0.00  -0.02     0.00  -0.00  -0.02
  20   6     0.11  -0.05   0.01     0.01  -0.00  -0.02     0.01  -0.00  -0.02
  21   6     0.09  -0.01   0.01     0.00  -0.00  -0.01     0.00   0.00  -0.01
  22   7     0.05  -0.01   0.00     0.00  -0.00  -0.01     0.00   0.00  -0.01
  23   6     0.11   0.03   0.01     0.00   0.00  -0.00     0.00   0.00  -0.00
  24   6     0.09   0.07   0.00     0.00   0.00   0.00     0.00   0.00   0.01
  25   7     0.05   0.08  -0.01     0.00   0.00   0.00     0.00   0.00   0.00
  26   1     0.04   0.03  -0.00     0.00   0.00   0.00     0.00   0.00   0.01
  27   1     0.02   0.05  -0.01     0.00   0.00   0.01     0.00   0.00   0.01
  28   1    -0.02   0.05  -0.01    -0.00   0.00  -0.01    -0.00   0.00  -0.01
  29   1    -0.04   0.03  -0.00    -0.00   0.00  -0.00    -0.00   0.00  -0.01
  30   1    -0.04   0.01   0.00    -0.00   0.00   0.00    -0.00   0.00   0.00
  31   1    -0.04  -0.01   0.01    -0.00  -0.00   0.01    -0.00  -0.00   0.01
  32   1    -0.02  -0.03   0.00    -0.00  -0.00   0.01     0.00  -0.00   0.01
  33   1     0.00  -0.03   0.00     0.00  -0.00  -0.00     0.00  -0.00   0.00
  34   1     0.02  -0.03   0.00     0.00  -0.00  -0.01     0.00  -0.00  -0.01
  35   1     0.04  -0.01   0.00     0.00  -0.00  -0.01     0.00  -0.00  -0.01
  36   1     0.04   0.01   0.00     0.00   0.00  -0.00     0.00   0.00  -0.00
  37  27     0.00   0.07   0.01    -0.00   0.00   0.00    -0.01  -0.00   0.00
  38   6     0.10   0.10   0.01     0.00   0.00   0.02     0.01  -0.06   0.29
  39   6     0.07   0.14  -0.01     0.00   0.00   0.02     0.01  -0.06   0.30
  40   6     0.03   0.12  -0.02     0.00   0.00   0.01     0.00  -0.03   0.14
  41   6    -0.00   0.14  -0.02    -0.00   0.01  -0.00     0.00   0.00   0.00
  42   6    -0.04   0.12  -0.01    -0.00   0.01  -0.01     0.00   0.03  -0.14
  43   6    -0.07   0.13  -0.00    -0.00   0.01  -0.02     0.00   0.06  -0.29
  44   6    -0.10   0.10   0.02    -0.00   0.01  -0.02     0.00   0.06  -0.29
  45   6    -0.08   0.06   0.02    -0.00   0.00  -0.01    -0.00   0.03  -0.13
  46   7    -0.04   0.08   0.00    -0.00   0.00  -0.00    -0.00   0.02  -0.07
  47   6    -0.10   0.02   0.03    -0.01   0.00   0.01    -0.01   0.00   0.00
  48   6    -0.08  -0.01   0.02    -0.00  -0.00   0.01    -0.01  -0.02   0.14
  49   6    -0.10  -0.05   0.01    -0.01  -0.01   0.02    -0.01  -0.04   0.29
  50   6    -0.07  -0.07  -0.01    -0.00  -0.01   0.02    -0.01  -0.04   0.29
  51   6    -0.04  -0.05  -0.01    -0.00  -0.00   0.01    -0.01  -0.02   0.14
  52   7    -0.04  -0.01   0.00    -0.00  -0.00   0.01    -0.01  -0.01   0.08
  53   6     0.00  -0.07  -0.02    -0.00  -0.00  -0.00    -0.01  -0.00  -0.00
  54   6     0.04  -0.05  -0.01    -0.00  -0.00  -0.01    -0.01   0.02  -0.14
  55   6     0.07  -0.07   0.00     0.00   0.00  -0.02    -0.01   0.04  -0.29
  56   6     0.10  -0.05   0.03     0.00   0.00  -0.02    -0.01   0.04  -0.29
  57   6     0.08  -0.01   0.03     0.00   0.00  -0.01    -0.01   0.02  -0.14
  58   7     0.04  -0.01   0.01     0.00   0.00  -0.01    -0.01   0.01  -0.08
  59   6     0.10   0.02   0.04     0.00   0.00  -0.00    -0.00  -0.00  -0.00
  60   6     0.08   0.06   0.02     0.00   0.00   0.01     0.00  -0.03   0.14
  61   7     0.04   0.08   0.00     0.00   0.00   0.00     0.00  -0.02   0.08
  62   1     0.04   0.03   0.01     0.00  -0.00   0.01     0.00  -0.02   0.11
  63   1     0.02   0.05  -0.01     0.00   0.00   0.01     0.00  -0.02   0.11
  64   1    -0.02   0.05  -0.00    -0.00   0.00  -0.01     0.00   0.02  -0.11
  65   1    -0.04   0.03   0.01    -0.00   0.00  -0.01     0.00   0.02  -0.11
  66   1    -0.04   0.01   0.01    -0.00   0.00   0.00    -0.00   0.00   0.00
  67   1    -0.04  -0.02   0.01    -0.00  -0.00   0.01    -0.00  -0.02   0.11
  68   1    -0.02  -0.03  -0.01    -0.00  -0.00   0.01    -0.00  -0.02   0.11
  69   1     0.00  -0.03  -0.01    -0.00  -0.00  -0.00    -0.00  -0.00  -0.00
  70   1     0.02  -0.03  -0.00     0.00  -0.00  -0.01    -0.01   0.02  -0.11
  71   1     0.04  -0.02   0.01     0.00   0.00  -0.01    -0.00   0.02  -0.11
  72   1     0.04   0.01   0.01     0.00   0.00  -0.00    -0.00  -0.00   0.00
  73   6    -0.00   0.17  -0.03     0.00   0.01  -0.00     0.00   0.00  -0.00
  74   6    -0.00   0.14  -0.03     0.00   0.00  -0.00     0.00   0.00  -0.00
  75   6    -0.00   0.10  -0.03     0.00   0.00  -0.00     0.00   0.00  -0.00
  76   6    -0.00   0.03  -0.02     0.00   0.00  -0.00     0.00  -0.00  -0.00
  77   6    -0.00  -0.03  -0.01     0.00  -0.00  -0.00     0.00  -0.00  -0.00
  78   6    -0.00  -0.08  -0.01     0.00  -0.00  -0.00     0.00  -0.00  -0.00
  79   6    -0.00  -0.07  -0.04    -0.00  -0.00  -0.00     0.00   0.00  -0.00
  80   6    -0.00  -0.02  -0.04    -0.00  -0.00  -0.00     0.00   0.00  -0.00
  81   6    -0.00   0.04  -0.05    -0.00   0.00  -0.00     0.00   0.00  -0.00
  82   6    -0.00   0.11  -0.05    -0.00   0.00  -0.00     0.00   0.00  -0.00
  83   6    -0.00   0.14  -0.04    -0.00   0.01  -0.00     0.00   0.00  -0.00
  84   6    -0.00   0.17  -0.03    -0.00   0.01  -0.00     0.00   0.00  -0.00
  85  27    -0.00  -0.19   0.01    -0.00  -0.01   0.00     0.00  -0.00  -0.00
  86   6     0.00  -0.09   0.02     0.00   0.03   0.30     0.00  -0.01  -0.02
  87   6     0.00  -0.09   0.00     0.00   0.03   0.30     0.00  -0.01  -0.02
  88   6     0.00  -0.09   0.00     0.00   0.01   0.14     0.00  -0.00  -0.01
  89   6    -0.00  -0.09   0.00     0.00  -0.00   0.00     0.00  -0.00  -0.00
  90   6    -0.00  -0.09   0.01     0.00  -0.02  -0.14     0.00  -0.00   0.01
  91   6    -0.00  -0.09   0.02     0.00  -0.04  -0.30    -0.00  -0.00   0.02
  92   6    -0.00  -0.08   0.04     0.00  -0.04  -0.30    -0.00  -0.00   0.02
  93   6    -0.00  -0.08   0.03     0.00  -0.02  -0.14    -0.00  -0.00   0.01
  94   7    -0.00  -0.09   0.02     0.00  -0.01  -0.08     0.00  -0.00   0.00
  95   6    -0.00  -0.08   0.03    -0.00  -0.00  -0.00    -0.00  -0.00  -0.00
  96   6    -0.00  -0.08   0.01    -0.00   0.01   0.14    -0.00  -0.00  -0.01
  97   6    -0.01  -0.08  -0.01    -0.00   0.03   0.30    -0.00  -0.00  -0.02
  98   6    -0.00  -0.08  -0.03     0.00   0.03   0.30    -0.00  -0.00  -0.02
  99   6    -0.00  -0.08  -0.02     0.00   0.01   0.14     0.00  -0.00  -0.01
 100   7    -0.00  -0.09  -0.00    -0.00   0.00   0.08     0.00  -0.00  -0.01
 101   6    -0.00  -0.08  -0.03    -0.00  -0.00  -0.00     0.00   0.00  -0.00
 102   6     0.00  -0.08  -0.01    -0.00  -0.02  -0.14     0.00   0.00   0.01
 103   6     0.00  -0.08  -0.00    -0.00  -0.04  -0.30     0.00   0.00   0.02
 104   6     0.01  -0.08   0.02    -0.00  -0.04  -0.30     0.00   0.00   0.02
 105   6     0.00  -0.08   0.02    -0.00  -0.02  -0.14     0.00   0.00   0.01
 106   7     0.00  -0.09   0.00    -0.00  -0.01  -0.08     0.00   0.00   0.01
 107   6     0.00  -0.08   0.03     0.00  -0.00   0.00     0.00  -0.00   0.00
 108   6     0.00  -0.08   0.02     0.00   0.01   0.14     0.00  -0.00  -0.01
 109   7     0.00  -0.09   0.01     0.00   0.01   0.08     0.00  -0.00  -0.00
 110   1     0.00  -0.02   0.01     0.00   0.01   0.11     0.00  -0.00  -0.01
 111   1     0.00  -0.03  -0.00     0.00   0.01   0.11     0.00  -0.00  -0.01
 112   1    -0.00  -0.03   0.01     0.00  -0.01  -0.11    -0.00  -0.00   0.01
 113   1    -0.00  -0.02   0.01     0.00  -0.01  -0.11    -0.00  -0.00   0.01
 114   1    -0.00  -0.02   0.01    -0.00  -0.00  -0.00    -0.00  -0.00  -0.00
 115   1    -0.00  -0.02  -0.00     0.00   0.01   0.11    -0.00  -0.00  -0.01
 116   1    -0.00  -0.02  -0.01     0.00   0.01   0.11    -0.00  -0.00  -0.01
 117   1     0.00  -0.02  -0.00    -0.00  -0.01  -0.11     0.00   0.00   0.01
 118   1     0.00  -0.02   0.01    -0.00  -0.01  -0.11     0.00   0.00   0.01
 119   1     0.00  -0.02   0.01     0.00  -0.00   0.00     0.00  -0.00   0.00
                     13                     14                     15
                        a                      a                      a 
 Frequencies --    23.4500                27.2637                29.8542
 Red. masses --    10.9601                11.8181                11.5212
 Frc consts  --     0.0000                 0.0000                 0.0000
 IR Inten    --   111.5415                 7.8178                46.0380
 Raman Activ --     0.0000                 0.0000                 0.0000
 Depolar     --     0.0000                 0.0000                 0.0000
 Atom AN      X      Y      Z        X      Y      Z        X      Y      Z
   1  27    -0.01  -0.00  -0.00    -0.00   0.06   0.01     0.00  -0.02   0.03
   2   6     0.01  -0.01  -0.30     0.07   0.08  -0.00    -0.02  -0.02   0.02
   3   6     0.01  -0.01  -0.30     0.05   0.10   0.03    -0.02  -0.03   0.12
   4   6     0.00  -0.00  -0.14     0.02   0.09   0.03    -0.01  -0.02   0.12
   5   6     0.00   0.00  -0.00    -0.00   0.10   0.04     0.00  -0.03   0.16
   6   6     0.00   0.01   0.14    -0.03   0.09   0.03     0.01  -0.02   0.12
   7   6     0.00   0.01   0.30    -0.05   0.10   0.03     0.02  -0.03   0.12
   8   6     0.00   0.01   0.30    -0.08   0.08   0.01     0.02  -0.02   0.02
   9   6     0.00   0.00   0.14    -0.06   0.05  -0.01     0.02  -0.02  -0.02
  10   7    -0.00   0.00   0.08    -0.03   0.06   0.01     0.01  -0.02   0.04
  11   6    -0.00   0.00  -0.00    -0.08   0.02  -0.03     0.02  -0.01  -0.10
  12   6    -0.01   0.00  -0.14    -0.06  -0.00  -0.03     0.02   0.00  -0.08
  13   6    -0.01   0.01  -0.29    -0.08  -0.03  -0.03     0.02   0.01  -0.10
  14   6    -0.01   0.01  -0.29    -0.05  -0.05  -0.01     0.01   0.01  -0.02
  15   6    -0.01   0.00  -0.14    -0.03  -0.03   0.00     0.01   0.01   0.02
  16   7    -0.01   0.00  -0.08    -0.03  -0.01  -0.01     0.01   0.00  -0.02
  17   6    -0.01  -0.00   0.00    -0.00  -0.05   0.02     0.00   0.01   0.05
  18   6    -0.01  -0.01   0.14     0.02  -0.03   0.01    -0.01   0.01   0.02
  19   6    -0.01  -0.01   0.29     0.05  -0.05  -0.00    -0.01   0.01  -0.02
  20   6    -0.01  -0.01   0.29     0.07  -0.03  -0.02    -0.02   0.01  -0.10
  21   6    -0.01  -0.00   0.14     0.06  -0.00  -0.02    -0.01   0.00  -0.08
  22   7    -0.01  -0.00   0.08     0.03  -0.00  -0.00    -0.01   0.00  -0.02
  23   6    -0.00  -0.00   0.00     0.07   0.03  -0.03    -0.02  -0.01  -0.10
  24   6     0.00  -0.00  -0.14     0.06   0.05  -0.01    -0.02  -0.02  -0.02
  25   7     0.00  -0.00  -0.08     0.03   0.06   0.01    -0.01  -0.02   0.04
  26   1     0.00  -0.00  -0.11     0.03   0.02  -0.00    -0.01  -0.01  -0.00
  27   1     0.00  -0.00  -0.11     0.01   0.04   0.01    -0.01  -0.01   0.05
  28   1     0.00   0.00   0.11    -0.02   0.04   0.01     0.01  -0.01   0.05
  29   1     0.00   0.00   0.11    -0.03   0.02  -0.00     0.01  -0.01  -0.00
  30   1    -0.00   0.00   0.00    -0.03   0.01  -0.01     0.01  -0.00  -0.04
  31   1    -0.00   0.00  -0.11    -0.03  -0.01  -0.01     0.01   0.00  -0.04
  32   1    -0.00   0.00  -0.11    -0.02  -0.02  -0.00     0.00   0.01  -0.00
  33   1    -0.00  -0.00   0.00    -0.00  -0.02   0.01    -0.00   0.00   0.02
  34   1    -0.00  -0.00   0.11     0.02  -0.02   0.00    -0.00   0.01  -0.00
  35   1    -0.00  -0.00   0.11     0.03  -0.01  -0.01    -0.01   0.00  -0.04
  36   1    -0.00  -0.00  -0.00     0.03   0.01  -0.01    -0.01  -0.00  -0.04
  37  27     0.00   0.00   0.00     0.01  -0.06  -0.01    -0.00   0.02  -0.03
  38   6     0.00  -0.00   0.02    -0.07  -0.08  -0.02     0.01   0.02  -0.01
  39   6     0.00  -0.00   0.02    -0.05  -0.10  -0.04     0.01   0.04  -0.11
  40   6     0.00   0.00   0.01    -0.02  -0.08  -0.03     0.00   0.04  -0.12
  41   6     0.00   0.00   0.00     0.00  -0.10  -0.04    -0.00   0.05  -0.16
  42   6     0.00   0.00  -0.01     0.03  -0.09  -0.03    -0.00   0.04  -0.12
  43   6     0.00   0.01  -0.02     0.06  -0.10  -0.03    -0.01   0.04  -0.12
  44   6     0.00   0.01  -0.02     0.08  -0.08  -0.01    -0.02   0.02  -0.02
  45   6     0.00   0.00  -0.01     0.06  -0.05  -0.01    -0.01   0.01   0.03
  46   7     0.00   0.00  -0.00     0.04  -0.06  -0.02    -0.01   0.02  -0.04
  47   6    -0.00   0.00   0.00     0.08  -0.03   0.01    -0.02  -0.01   0.11
  48   6    -0.00  -0.00   0.01     0.06  -0.00   0.01    -0.02  -0.01   0.09
  49   6    -0.00  -0.00   0.02     0.08   0.03   0.02    -0.02  -0.02   0.10
  50   6    -0.00  -0.00   0.02     0.06   0.05   0.01    -0.01  -0.01   0.02
  51   6     0.00  -0.00   0.01     0.03   0.04   0.01    -0.01  -0.00  -0.02
  52   7     0.00  -0.00   0.01     0.04   0.00   0.00    -0.01  -0.00   0.02
  53   6     0.00  -0.00  -0.00     0.00   0.05   0.01    -0.00  -0.00  -0.06
  54   6     0.00   0.00  -0.01    -0.02   0.03   0.01     0.00  -0.00  -0.02
  55   6     0.00   0.00  -0.02    -0.05   0.05   0.02     0.01  -0.01   0.02
  56   6     0.00   0.00  -0.02    -0.07   0.03   0.02     0.02  -0.02   0.10
  57   6     0.00   0.00  -0.01    -0.06  -0.00   0.01     0.02  -0.02   0.09
  58   7     0.00   0.00  -0.01    -0.03   0.00   0.01     0.01  -0.00   0.02
  59   6     0.00   0.00  -0.00    -0.07  -0.03   0.01     0.02  -0.01   0.11
  60   6     0.00  -0.00   0.01    -0.06  -0.05  -0.01     0.01   0.01   0.03
  61   7     0.00   0.00   0.01    -0.03  -0.06  -0.02     0.01   0.02  -0.04
  62   1     0.00  -0.00   0.01    -0.03  -0.02  -0.01     0.01   0.00   0.01
  63   1     0.00  -0.00   0.01    -0.02  -0.03  -0.02     0.00   0.02  -0.05
  64   1     0.00   0.00  -0.01     0.02  -0.04  -0.01    -0.00   0.02  -0.05
  65   1    -0.00   0.00  -0.01     0.03  -0.02  -0.00    -0.01   0.00   0.01
  66   1    -0.00   0.00   0.00     0.03  -0.01   0.00    -0.01  -0.01   0.05
  67   1    -0.00  -0.00   0.01     0.03   0.01   0.01    -0.01  -0.01   0.04
  68   1    -0.00  -0.00   0.01     0.02   0.02   0.00    -0.00  -0.00   0.00
  69   1     0.00  -0.00  -0.00     0.00   0.02   0.00    -0.00  -0.00  -0.03
  70   1     0.00   0.00  -0.01    -0.02   0.02   0.01     0.00  -0.00  -0.00
  71   1     0.00   0.00  -0.01    -0.03   0.01   0.01     0.01  -0.01   0.04
  72   1     0.00   0.00   0.00    -0.03  -0.01   0.00     0.01  -0.01   0.05
  73   6     0.00   0.00  -0.00    -0.00   0.11   0.05     0.00  -0.03   0.19
  74   6     0.00   0.00  -0.00    -0.00   0.06   0.04     0.00  -0.01   0.16
  75   6     0.00   0.00   0.00    -0.00   0.00   0.03     0.00   0.00   0.10
  76   6     0.00   0.00   0.00    -0.00  -0.08   0.01     0.00   0.03   0.02
  77   6     0.00   0.00   0.00    -0.00  -0.13  -0.01     0.00   0.04  -0.05
  78   6     0.00   0.00   0.00    -0.00  -0.17  -0.03     0.00   0.05  -0.12
  79   6     0.00  -0.00  -0.00     0.00   0.17   0.06    -0.00  -0.05   0.11
  80   6     0.00  -0.00  -0.00     0.00   0.13   0.04    -0.00  -0.04   0.04
  81   6     0.00  -0.00  -0.00     0.00   0.09   0.01    -0.00  -0.02  -0.03
  82   6     0.00   0.00   0.00     0.00  -0.00  -0.02    -0.00   0.02  -0.11
  83   6     0.00   0.00   0.00     0.00  -0.06  -0.04    -0.00   0.04  -0.16
  84   6     0.00   0.00   0.00     0.00  -0.11  -0.05    -0.00   0.06  -0.19
  85  27     0.00  -0.00   0.00    -0.00   0.00   0.00    -0.00  -0.01  -0.00
  86   6     0.00   0.00   0.02     0.12  -0.10  -0.06    -0.05   0.02  -0.15
  87   6     0.00   0.00   0.02     0.09  -0.14  -0.06    -0.04   0.03  -0.18
  88   6     0.00   0.00   0.01     0.04  -0.11  -0.04    -0.02   0.03  -0.13
  89   6     0.00   0.00   0.00    -0.00  -0.13  -0.04     0.00   0.03  -0.14
  90   6     0.00  -0.00  -0.01    -0.04  -0.11  -0.04     0.02   0.02  -0.13
  91   6     0.00  -0.00  -0.01    -0.09  -0.13  -0.07     0.04   0.03  -0.18
  92   6     0.00  -0.00  -0.02    -0.13  -0.10  -0.06     0.05   0.02  -0.15
  93   6     0.00  -0.00  -0.01    -0.10  -0.05  -0.04     0.04   0.01  -0.08
  94   7     0.00  -0.00  -0.00    -0.05  -0.06  -0.03     0.02   0.01  -0.08
  95   6     0.00  -0.00  -0.00    -0.12  -0.00  -0.01     0.05  -0.00   0.00
  96   6     0.00  -0.00   0.00    -0.10   0.05   0.03     0.04  -0.01   0.08
  97   6     0.00  -0.00   0.01    -0.12   0.10   0.06     0.05  -0.02   0.15
  98   6     0.00  -0.00   0.01    -0.09   0.14   0.08     0.04  -0.04   0.18
  99   6     0.00  -0.00   0.01    -0.04   0.11   0.06     0.02  -0.03   0.13
 100   7     0.00  -0.00   0.00    -0.05   0.06   0.03     0.02  -0.02   0.08
 101   6     0.00  -0.00  -0.00     0.00   0.13   0.06    -0.00  -0.04   0.13
 102   6     0.00  -0.00  -0.01     0.04   0.11   0.06    -0.02  -0.03   0.13
 103   6     0.00  -0.00  -0.01     0.09   0.14   0.07    -0.04  -0.04   0.18
 104   6     0.00  -0.00  -0.01     0.13   0.10   0.05    -0.05  -0.02   0.15
 105   6     0.00  -0.00  -0.01     0.10   0.05   0.03    -0.04  -0.01   0.08
 106   7     0.00  -0.00  -0.00     0.05   0.06   0.03    -0.02  -0.02   0.08
 107   6     0.00  -0.00   0.00     0.12  -0.00  -0.01    -0.05  -0.00   0.00
 108   6     0.00   0.00   0.01     0.10  -0.05  -0.04    -0.04   0.01  -0.08
 109   7     0.00   0.00   0.01     0.05  -0.06  -0.03    -0.02   0.01  -0.08
 110   1    -0.00   0.00   0.01     0.05  -0.03  -0.02    -0.02   0.01  -0.05
 111   1     0.00   0.00   0.01     0.03  -0.05  -0.02    -0.01   0.01  -0.07
 112   1     0.00  -0.00  -0.01    -0.03  -0.05  -0.02     0.01   0.01  -0.07
 113   1     0.00  -0.00  -0.01    -0.05  -0.03  -0.02     0.02   0.01  -0.05
 114   1     0.00  -0.00  -0.00    -0.05  -0.00  -0.00     0.02  -0.00   0.00
 115   1     0.00  -0.00   0.00    -0.05   0.03   0.02     0.02  -0.01   0.05
 116   1     0.00  -0.00   0.00    -0.03   0.05   0.03     0.01  -0.01   0.07
 117   1     0.00  -0.00  -0.01     0.03   0.05   0.03    -0.01  -0.01   0.07
 118   1    -0.00  -0.00  -0.00     0.05   0.03   0.02    -0.02  -0.01   0.05
 119   1    -0.00  -0.00   0.00     0.05  -0.00  -0.00    -0.02  -0.00   0.00
                     16                     17                     18
                        a                      a                      a 
 Frequencies --    36.6248                49.4165                63.3008
 Red. masses --    11.7610                19.0949                11.8955
 Frc consts  --     0.0000                 0.0000                 0.0000
 IR Inten    --   314.7171                25.5996                 5.7132
 Raman Activ --     0.0000                 0.0000                 0.0000
 Depolar     --     0.0000                 0.0000                 0.0000
 Atom AN      X      Y      Z        X      Y      Z        X      Y      Z
   1  27    -0.00  -0.01  -0.04    -0.28  -0.00   0.00     0.00   0.01   0.07
   2   6    -0.01  -0.00  -0.03    -0.12   0.01   0.01     0.00   0.00   0.05
   3   6    -0.00  -0.01  -0.14    -0.12  -0.00   0.01     0.00   0.01   0.12
   4   6    -0.00  -0.01  -0.14    -0.10   0.01   0.01     0.00   0.01   0.10
   5   6    -0.00  -0.01  -0.18    -0.09   0.00   0.00     0.00   0.01   0.10
   6   6    -0.00  -0.01  -0.14    -0.11  -0.00   0.00     0.00   0.01   0.10
   7   6    -0.00  -0.01  -0.14    -0.12   0.00  -0.00     0.00   0.01   0.12
   8   6     0.00  -0.00  -0.03    -0.13  -0.01  -0.00    -0.00   0.01   0.05
   9   6     0.00  -0.00   0.02    -0.12  -0.02  -0.00    -0.00   0.00   0.00
  10   7    -0.00  -0.01  -0.06    -0.12  -0.01   0.00     0.00   0.01   0.06
  11   6     0.00  -0.00   0.12    -0.12  -0.02  -0.00    -0.01   0.00  -0.10
  12   6     0.00  -0.00   0.10    -0.13  -0.01   0.00    -0.00   0.00  -0.09
  13   6     0.00  -0.00   0.12    -0.12  -0.00   0.00    -0.01   0.00  -0.12
  14   6     0.00   0.00   0.02    -0.13   0.00   0.01    -0.00  -0.00  -0.02
  15   6    -0.00   0.00  -0.03    -0.13  -0.00   0.00    -0.00  -0.00   0.05
  16   7     0.00  -0.00   0.02    -0.14  -0.01   0.00    -0.00   0.00   0.00
  17   6    -0.00   0.01  -0.08    -0.14  -0.00   0.00     0.00  -0.01   0.11
  18   6    -0.00   0.00  -0.03    -0.13   0.00  -0.00     0.00  -0.00   0.05
  19   6    -0.01   0.00   0.02    -0.13  -0.00  -0.01     0.01  -0.00  -0.02
  20   6    -0.01  -0.00   0.11    -0.12   0.00  -0.01     0.01   0.00  -0.12
  21   6    -0.01  -0.00   0.10    -0.13   0.01  -0.01     0.01   0.00  -0.09
  22   7    -0.01   0.00   0.02    -0.14   0.01  -0.00     0.00  -0.00   0.00
  23   6    -0.01  -0.00   0.12    -0.12   0.02  -0.00     0.01   0.00  -0.10
  24   6    -0.01  -0.00   0.02    -0.12   0.01   0.00     0.00   0.00   0.00
  25   7    -0.00  -0.00  -0.06    -0.12   0.01   0.00     0.00   0.00   0.06
  26   1    -0.00  -0.00   0.00    -0.04   0.00   0.00     0.00   0.00   0.01
  27   1    -0.00  -0.00  -0.06    -0.03  -0.00   0.00    -0.00   0.00   0.05
  28   1    -0.00  -0.00  -0.06    -0.03   0.00  -0.00     0.00   0.00   0.05
  29   1     0.00  -0.00   0.00    -0.04  -0.00  -0.00    -0.00   0.00   0.01
  30   1     0.00  -0.00   0.05    -0.03  -0.00  -0.00    -0.00   0.00  -0.05
  31   1     0.00  -0.00   0.05    -0.03  -0.00   0.00    -0.00   0.00  -0.06
  32   1     0.00   0.00  -0.00    -0.04   0.00   0.00    -0.00  -0.00   0.00
  33   1    -0.00   0.00  -0.03    -0.04  -0.00   0.00     0.00  -0.00   0.04
  34   1    -0.00   0.00  -0.00    -0.04  -0.00  -0.00     0.00  -0.00   0.00
  35   1    -0.00  -0.00   0.05    -0.03   0.00  -0.00     0.00   0.00  -0.06
  36   1    -0.00  -0.00   0.05    -0.03   0.00  -0.00     0.00   0.00  -0.05
  37  27     0.01  -0.00  -0.04     0.28   0.00   0.00    -0.00   0.00  -0.07
  38   6    -0.01  -0.01  -0.03     0.12  -0.01   0.01    -0.01  -0.00  -0.05
  39   6    -0.01   0.01  -0.13     0.12   0.00   0.01    -0.01   0.01  -0.11
  40   6    -0.00   0.01  -0.14     0.10  -0.01   0.00    -0.00   0.01  -0.10
  41   6     0.00   0.02  -0.18     0.09  -0.00   0.00    -0.00   0.01  -0.10
  42   6     0.01   0.01  -0.14     0.10   0.01  -0.00     0.00   0.01  -0.10
  43   6     0.01   0.01  -0.13     0.12  -0.00  -0.00     0.01   0.01  -0.11
  44   6     0.02  -0.01  -0.03     0.13   0.01  -0.00     0.01  -0.00  -0.05
  45   6     0.01  -0.01   0.02     0.12   0.02   0.00     0.01  -0.01  -0.00
  46   7     0.01   0.00  -0.05     0.12   0.01   0.00     0.00   0.00  -0.05
  47   6     0.01  -0.02   0.11     0.12   0.02   0.00     0.01  -0.02   0.09
  48   6     0.01  -0.02   0.10     0.13   0.01   0.00     0.00  -0.01   0.09
  49   6     0.01  -0.01   0.11     0.12   0.00   0.01     0.01  -0.01   0.12
  50   6     0.01   0.00   0.02     0.13  -0.00   0.01     0.00   0.00   0.02
  51   6     0.01   0.01  -0.03     0.13   0.00   0.00     0.00   0.01  -0.05
  52   7     0.01  -0.00   0.02     0.14   0.01   0.00     0.00   0.00  -0.00
  53   6     0.00   0.02  -0.07     0.14   0.00  -0.00    -0.00   0.02  -0.10
  54   6    -0.00   0.01  -0.03     0.13   0.00  -0.00    -0.00   0.01  -0.05
  55   6    -0.01   0.00   0.02     0.13   0.00  -0.01    -0.01   0.00   0.02
  56   6    -0.01  -0.01   0.11     0.12  -0.00  -0.01    -0.00  -0.02   0.12
  57   6    -0.00  -0.02   0.10     0.13  -0.01  -0.00    -0.00  -0.02   0.09
  58   7    -0.00  -0.00   0.02     0.14  -0.01  -0.00    -0.00  -0.00  -0.00
  59   6    -0.01  -0.03   0.11     0.12  -0.02  -0.00    -0.01  -0.02   0.09
  60   6    -0.01  -0.01   0.02     0.12  -0.01   0.00    -0.01  -0.01  -0.00
  61   7    -0.00  -0.00  -0.05     0.12  -0.01  -0.00    -0.00   0.00  -0.06
  62   1    -0.00  -0.01   0.00     0.04  -0.00   0.00    -0.00  -0.00  -0.01
  63   1    -0.00   0.00  -0.06     0.03   0.00   0.00    -0.00   0.00  -0.05
  64   1     0.00   0.00  -0.06     0.03  -0.00  -0.00     0.00   0.00  -0.05
  65   1     0.01  -0.01   0.00     0.04   0.00  -0.00     0.00  -0.00  -0.01
  66   1     0.00  -0.01   0.05     0.03   0.00   0.00     0.00  -0.01   0.04
  67   1     0.00  -0.01   0.05     0.03   0.00   0.00     0.00  -0.01   0.06
  68   1     0.00   0.00  -0.00     0.04  -0.00   0.00     0.00   0.00  -0.00
  69   1     0.00   0.01  -0.03     0.04   0.00  -0.00    -0.00   0.01  -0.04
  70   1    -0.00   0.00  -0.00     0.04   0.00  -0.00    -0.00   0.00  -0.00
  71   1    -0.00  -0.01   0.05     0.03  -0.00  -0.00    -0.00  -0.01   0.06
  72   1    -0.00  -0.01   0.05     0.03  -0.00  -0.00    -0.00  -0.01   0.04
  73   6    -0.00  -0.01  -0.19    -0.08   0.00   0.00     0.00  -0.00   0.02
  74   6    -0.00   0.00  -0.12    -0.08  -0.00   0.00     0.00  -0.02  -0.14
  75   6    -0.00   0.01  -0.03    -0.07   0.00  -0.00     0.00  -0.03  -0.24
  76   6    -0.00   0.02   0.08    -0.07   0.00  -0.00     0.00  -0.04  -0.28
  77   6    -0.00   0.02   0.16    -0.06   0.00  -0.01     0.00  -0.03  -0.24
  78   6    -0.00   0.03   0.21    -0.06   0.00  -0.01    -0.00  -0.02  -0.11
  79   6     0.00   0.02   0.21     0.06  -0.01  -0.01    -0.00   0.02   0.12
  80   6     0.00   0.02   0.16     0.06  -0.00  -0.00    -0.00   0.01   0.24
  81   6     0.00   0.02   0.08     0.07  -0.00  -0.00    -0.00   0.01   0.28
  82   6     0.00   0.02  -0.03     0.07  -0.00  -0.00    -0.00  -0.01   0.23
  83   6     0.00   0.02  -0.12     0.08  -0.00   0.00    -0.00  -0.01   0.13
  84   6     0.00   0.02  -0.18     0.08  -0.00   0.00    -0.00  -0.01  -0.02
  85  27    -0.00  -0.00   0.07    -0.00   0.00  -0.00    -0.00   0.01   0.00
  86   6    -0.00  -0.01  -0.07    -0.00   0.01   0.01     0.00   0.02   0.15
  87   6    -0.00   0.01   0.08    -0.02   0.00   0.00     0.00   0.01   0.12
  88   6    -0.00   0.01   0.12    -0.03   0.01  -0.00     0.00   0.00   0.05
  89   6    -0.00   0.02   0.19    -0.05   0.00  -0.00    -0.00  -0.00  -0.01
  90   6    -0.00   0.01   0.12    -0.03  -0.00  -0.00    -0.00   0.00   0.05
  91   6     0.00   0.01   0.08    -0.01   0.01  -0.00    -0.00   0.01   0.12
  92   6     0.00  -0.01  -0.07     0.01  -0.01   0.00    -0.01   0.02   0.15
  93   6     0.00  -0.01  -0.09    -0.00  -0.02   0.01    -0.00   0.01   0.08
  94   7     0.00   0.00   0.03    -0.03  -0.02   0.00    -0.00   0.01   0.05
  95   6     0.00  -0.02  -0.17     0.00  -0.03   0.01    -0.01   0.00  -0.00
  96   6     0.00  -0.01  -0.09     0.01  -0.03   0.01    -0.00  -0.00  -0.08
  97   6     0.00  -0.01  -0.07     0.00  -0.01   0.00    -0.00  -0.01  -0.15
  98   6     0.00   0.00   0.08     0.01  -0.00  -0.00    -0.00  -0.01  -0.12
  99   6     0.00   0.01   0.12     0.03  -0.01  -0.00    -0.00   0.00  -0.04
 100   7     0.00  -0.00   0.03     0.03  -0.03   0.00    -0.00  -0.00  -0.04
 101   6     0.00   0.01   0.19     0.05  -0.01  -0.01    -0.00   0.01   0.01
 102   6    -0.00   0.01   0.12     0.03   0.00  -0.01    -0.00   0.00  -0.04
 103   6    -0.00   0.00   0.08     0.01  -0.01  -0.00     0.00  -0.01  -0.12
 104   6    -0.00  -0.01  -0.07    -0.01   0.01  -0.00     0.00  -0.01  -0.15
 105   6    -0.00  -0.01  -0.09     0.00   0.02  -0.00     0.00  -0.01  -0.08
 106   7    -0.00  -0.00   0.03     0.03   0.02  -0.00    -0.00  -0.00  -0.04
 107   6    -0.00  -0.02  -0.17    -0.00   0.04   0.00     0.00   0.00  -0.00
 108   6    -0.00  -0.01  -0.09    -0.01   0.03   0.00     0.00   0.01   0.08
 109   7    -0.00   0.00   0.03    -0.03   0.03  -0.00     0.00   0.01   0.05
 110   1    -0.00  -0.01  -0.04     0.00   0.00   0.00     0.00   0.01   0.06
 111   1    -0.00   0.00   0.04    -0.00  -0.00   0.00     0.00   0.00   0.04
 112   1     0.00   0.01   0.04    -0.00   0.01  -0.00    -0.00   0.00   0.04
 113   1     0.00  -0.00  -0.04     0.01  -0.00   0.00    -0.00   0.01   0.06
 114   1     0.00  -0.01  -0.08     0.00  -0.01   0.00    -0.00   0.00  -0.00
 115   1     0.00  -0.01  -0.04    -0.00  -0.00   0.00    -0.00  -0.01  -0.06
 116   1     0.00   0.00   0.04     0.00   0.00  -0.00    -0.00  -0.00  -0.04
 117   1    -0.00   0.00   0.04     0.00  -0.01  -0.00     0.00  -0.00  -0.04
 118   1    -0.00  -0.01  -0.04    -0.01   0.00   0.00     0.00  -0.01  -0.06
 119   1    -0.00  -0.01  -0.08    -0.00   0.01   0.00     0.00   0.00  -0.00
                     19                     20                     21
                        a                      a                      a 
 Frequencies --    76.3921                88.3429                93.5399
 Red. masses --    13.6470                13.0212                12.3128
 Frc consts  --     0.0000                 0.0000                 0.0000
 IR Inten    --    13.8482                22.4478               660.4503
 Raman Activ --     0.0000                 0.0000                 0.0000
 Depolar     --     0.0000                 0.0000                 0.0000
 Atom AN      X      Y      Z        X      Y      Z        X      Y      Z
   1  27    -0.00   0.00   0.08    -0.02   0.05  -0.00    -0.00   0.06  -0.05
   2   6    -0.00  -0.00   0.06     0.02   0.05   0.01     0.04   0.06  -0.01
   3   6    -0.00  -0.00   0.10     0.02   0.06   0.01     0.02   0.07  -0.01
   4   6    -0.00  -0.00   0.07     0.00   0.05   0.00     0.01   0.06  -0.01
   5   6    -0.00  -0.00   0.05    -0.00   0.05  -0.01    -0.00   0.06   0.00
   6   6     0.00  -0.00   0.07    -0.01   0.05   0.00    -0.01   0.06  -0.01
   7   6     0.00  -0.00   0.10    -0.03   0.06   0.01    -0.03   0.07  -0.01
   8   6     0.00  -0.00   0.06    -0.04   0.04   0.01    -0.04   0.05  -0.01
   9   6     0.00  -0.00   0.02    -0.03   0.03   0.00    -0.03   0.04  -0.01
  10   7     0.00  -0.00   0.05    -0.01   0.03   0.00    -0.01   0.04  -0.02
  11   6    -0.00   0.00  -0.08    -0.04   0.01  -0.01    -0.04   0.02   0.02
  12   6    -0.00   0.00  -0.09    -0.04   0.00  -0.01    -0.04   0.00   0.02
  13   6    -0.00   0.00  -0.13    -0.04  -0.01  -0.01    -0.04  -0.01   0.05
  14   6    -0.00   0.00  -0.02    -0.03  -0.02   0.00    -0.03  -0.03   0.02
  15   6    -0.00  -0.00   0.06    -0.02  -0.01   0.01    -0.02  -0.02  -0.02
  16   7    -0.00   0.00   0.01    -0.02   0.00   0.00    -0.02   0.00  -0.01
  17   6    -0.00  -0.00   0.11    -0.01  -0.02   0.02    -0.00  -0.02  -0.03
  18   6    -0.00  -0.00   0.06     0.00  -0.01   0.01     0.01  -0.02  -0.02
  19   6     0.00   0.00  -0.02     0.02  -0.02   0.00     0.03  -0.03   0.02
  20   6     0.00   0.00  -0.13     0.03  -0.01  -0.01     0.04  -0.01   0.05
  21   6     0.00   0.00  -0.09     0.02   0.01  -0.01     0.03   0.01   0.02
  22   7     0.00   0.00   0.01     0.01   0.00   0.00     0.02   0.00  -0.01
  23   6     0.00  -0.00  -0.08     0.03   0.02  -0.01     0.04   0.02   0.02
  24   6    -0.00  -0.00   0.02     0.02   0.04   0.00     0.03   0.04  -0.01
  25   7    -0.00  -0.00   0.05     0.01   0.04   0.00     0.01   0.05  -0.02
  26   1    -0.00  -0.00   0.02     0.01   0.01   0.01     0.01   0.02  -0.00
  27   1    -0.00  -0.00   0.04     0.00   0.02   0.00     0.01   0.02  -0.00
  28   1     0.00  -0.00   0.04    -0.01   0.02   0.00    -0.01   0.02  -0.00
  29   1     0.00  -0.00   0.02    -0.02   0.01   0.01    -0.02   0.02  -0.00
  30   1    -0.00   0.00  -0.04    -0.02   0.00  -0.00    -0.02   0.01   0.01
  31   1    -0.00   0.00  -0.06    -0.02  -0.00  -0.01    -0.02  -0.00   0.02
  32   1    -0.00   0.00  -0.00    -0.01  -0.01   0.00    -0.01  -0.01   0.01
  33   1    -0.00  -0.00   0.05    -0.00  -0.01   0.01    -0.00  -0.01  -0.01
  34   1     0.00   0.00  -0.00     0.01  -0.01   0.00     0.01  -0.01   0.01
  35   1     0.00   0.00  -0.06     0.01  -0.00  -0.01     0.02  -0.00   0.02
  36   1     0.00  -0.00  -0.04     0.01   0.01  -0.00     0.02   0.01   0.01
  37  27     0.00  -0.02   0.08    -0.01   0.06   0.00    -0.01  -0.04   0.01
  38   6     0.00  -0.01   0.07     0.03   0.06  -0.01    -0.03  -0.04   0.02
  39   6     0.00  -0.02   0.10     0.02   0.07  -0.00    -0.02  -0.05   0.01
  40   6     0.00  -0.02   0.08     0.00   0.06   0.01    -0.01  -0.04  -0.00
  41   6     0.00  -0.01   0.05    -0.00   0.06   0.02     0.00  -0.04  -0.02
  42   6    -0.00  -0.02   0.08    -0.01   0.06   0.01     0.00  -0.04  -0.00
  43   6    -0.00  -0.02   0.10    -0.03   0.07  -0.00     0.01  -0.05   0.02
  44   6    -0.00  -0.01   0.07    -0.05   0.06  -0.01     0.02  -0.05   0.02
  45   6     0.00  -0.00   0.02    -0.04   0.04   0.00     0.02  -0.03   0.01
  46   7     0.00  -0.01   0.05    -0.02   0.04   0.00     0.01  -0.04   0.00
  47   6     0.00   0.01  -0.08    -0.05   0.02   0.01     0.03  -0.01  -0.02
  48   6     0.00   0.01  -0.09    -0.04   0.00   0.02     0.02  -0.00  -0.03
  49   6     0.00   0.02  -0.13    -0.05  -0.02   0.02     0.03   0.01  -0.04
  50   6     0.00   0.00  -0.02    -0.04  -0.03  -0.01     0.02   0.02  -0.00
  51   6     0.00  -0.01   0.06    -0.02  -0.01  -0.02     0.01   0.01   0.02
  52   7     0.00  -0.00   0.01    -0.03   0.00  -0.00     0.01  -0.00   0.00
  53   6     0.00  -0.02   0.12    -0.01  -0.02  -0.03    -0.01   0.01   0.05
  54   6     0.00  -0.01   0.06     0.01  -0.01  -0.02    -0.02   0.01   0.02
  55   6    -0.00   0.00  -0.02     0.03  -0.03  -0.00    -0.03   0.02  -0.00
  56   6    -0.01   0.02  -0.13     0.04  -0.02   0.02    -0.04   0.02  -0.04
  57   6    -0.01   0.02  -0.09     0.03   0.00   0.02    -0.03   0.00  -0.03
  58   7    -0.00  -0.00   0.01     0.01   0.00  -0.00    -0.02  -0.00   0.01
  59   6    -0.00   0.02  -0.08     0.04   0.02   0.02    -0.03  -0.01  -0.02
  60   6    -0.00  -0.00   0.02     0.03   0.04   0.00    -0.02  -0.03   0.01
  61   7     0.00  -0.01   0.05     0.01   0.05   0.01    -0.01  -0.03   0.00
  62   1     0.00  -0.00   0.02     0.01   0.02  -0.00    -0.01  -0.01   0.01
  63   1     0.00  -0.01   0.04     0.01   0.02  -0.00    -0.01  -0.02   0.01
  64   1    -0.00  -0.01   0.04    -0.01   0.02  -0.00     0.00  -0.02   0.01
  65   1    -0.00  -0.00   0.02    -0.02   0.02  -0.01     0.01  -0.01   0.01
  66   1     0.00   0.01  -0.04    -0.02   0.00   0.01     0.01  -0.00  -0.01
  67   1     0.00   0.01  -0.06    -0.02  -0.01   0.01     0.01   0.01  -0.02
  68   1     0.00   0.00  -0.00    -0.01  -0.01  -0.00     0.01   0.01   0.00
  69   1     0.00  -0.01   0.05    -0.00  -0.01  -0.01    -0.00   0.01   0.02
  70   1    -0.00   0.00  -0.00     0.01  -0.01  -0.00    -0.01   0.01   0.00
  71   1    -0.00   0.01  -0.06     0.02  -0.01   0.01    -0.01   0.01  -0.02
  72   1    -0.00   0.01  -0.04     0.02   0.01   0.01    -0.01  -0.00  -0.01
  73   6    -0.00  -0.01  -0.06     0.00   0.01  -0.02     0.00   0.01   0.03
  74   6    -0.00  -0.01  -0.21     0.00  -0.22  -0.03     0.00  -0.28   0.07
  75   6    -0.00  -0.00  -0.27     0.00  -0.31  -0.02     0.00  -0.39   0.07
  76   6    -0.00   0.01  -0.22     0.01  -0.33   0.00     0.00  -0.38   0.03
  77   6    -0.00   0.01  -0.11     0.01  -0.25   0.02     0.00  -0.26  -0.00
  78   6    -0.00   0.02   0.06     0.01  -0.02   0.04     0.00   0.03  -0.05
  79   6     0.00   0.00   0.06     0.01  -0.02  -0.03     0.00  -0.04   0.05
  80   6     0.00   0.04  -0.11     0.01  -0.29  -0.06     0.00   0.18   0.06
  81   6     0.00   0.06  -0.23     0.00  -0.40  -0.06     0.00   0.27   0.04
  82   6     0.00   0.07  -0.27     0.00  -0.39  -0.03     0.00   0.30  -0.01
  83   6     0.00   0.06  -0.22     0.00  -0.27   0.00     0.00   0.22  -0.04
  84   6     0.00   0.02  -0.06     0.00   0.01   0.03     0.00   0.01  -0.05
  85  27     0.00   0.00   0.19     0.03   0.11   0.07     0.01   0.01  -0.05
  86   6    -0.01  -0.01  -0.08     0.02   0.03  -0.06    -0.06   0.07   0.04
  87   6    -0.01   0.01   0.05     0.02   0.03  -0.02    -0.04   0.09   0.01
  88   6    -0.00   0.01   0.12     0.02   0.04   0.03    -0.01   0.07  -0.03
  89   6    -0.00   0.02   0.15     0.01   0.03   0.04     0.01   0.07  -0.05
  90   6     0.00   0.01   0.12     0.00   0.04   0.03     0.02   0.07  -0.03
  91   6     0.01   0.01   0.05     0.00   0.03  -0.01     0.05   0.08   0.01
  92   6     0.01  -0.01  -0.08    -0.00   0.03  -0.06     0.07   0.07   0.05
  93   6     0.01  -0.01  -0.07     0.00   0.03  -0.03     0.06   0.04   0.02
  94   7     0.00   0.00   0.07     0.00   0.04   0.02     0.03   0.04  -0.02
  95   6     0.01  -0.02  -0.16     0.00   0.03  -0.04     0.07   0.01   0.01
  96   6     0.01  -0.02  -0.07     0.01   0.05  -0.01     0.06  -0.02  -0.01
  97   6     0.01  -0.02  -0.08     0.01   0.05  -0.01     0.07  -0.05  -0.01
  98   6     0.01  -0.01   0.06     0.01   0.05   0.01     0.05  -0.07  -0.00
  99   6     0.00  -0.00   0.12     0.02   0.05   0.02     0.02  -0.06   0.00
 100   7     0.00  -0.01   0.07     0.02   0.05   0.02     0.03  -0.03  -0.01
 101   6     0.00   0.00   0.15     0.01   0.05   0.01     0.00  -0.07   0.02
 102   6    -0.00  -0.00   0.12     0.01   0.05   0.02    -0.02  -0.06   0.00
 103   6    -0.00  -0.01   0.06     0.01   0.05   0.01    -0.04  -0.07  -0.00
 104   6    -0.01  -0.02  -0.08     0.01   0.04  -0.01    -0.07  -0.05  -0.01
 105   6    -0.01  -0.02  -0.07     0.01   0.04  -0.01    -0.05  -0.02  -0.01
 106   7    -0.00  -0.01   0.07     0.01   0.05   0.02    -0.02  -0.03  -0.01
 107   6    -0.01  -0.03  -0.16     0.02   0.03  -0.04    -0.06   0.01   0.01
 108   6    -0.01  -0.01  -0.07     0.02   0.04  -0.03    -0.05   0.04   0.02
 109   7    -0.00   0.00   0.07     0.02   0.04   0.02    -0.02   0.04  -0.02
 110   1    -0.00  -0.01  -0.05     0.01   0.01  -0.03    -0.02   0.02   0.02
 111   1    -0.00   0.00   0.03     0.01   0.01  -0.00    -0.01   0.03   0.00
 112   1     0.00   0.00   0.03    -0.00   0.01  -0.00     0.02   0.03   0.00
 113   1     0.00  -0.01  -0.05    -0.00   0.01  -0.03     0.03   0.02   0.02
 114   1     0.00  -0.01  -0.08     0.00   0.01  -0.02     0.03   0.00   0.01
 115   1     0.00  -0.01  -0.05     0.00   0.01  -0.01     0.03  -0.02  -0.01
 116   1     0.00  -0.00   0.03     0.00   0.01   0.00     0.02  -0.03   0.00
 117   1    -0.00  -0.00   0.03     0.00   0.01   0.00    -0.01  -0.03   0.00
 118   1    -0.00  -0.01  -0.05     0.00   0.01  -0.01    -0.03  -0.02  -0.01
 119   1    -0.00  -0.01  -0.08     0.01   0.01  -0.02    -0.03   0.00   0.01
                     22                     23                     24
                        a                      a                      a 
 Frequencies --    96.5369               100.8396               100.9031
 Red. masses --    19.6443                28.4580                28.4775
 Frc consts  --     0.0000                 0.0000                 0.0000
 IR Inten    --    38.2962                18.0359                39.0202
 Raman Activ --     0.0000                 0.0000                 0.0000
 Depolar     --     0.0000                 0.0000                 0.0000
 Atom AN      X      Y      Z        X      Y      Z        X      Y      Z
   1  27    -0.18  -0.01  -0.01    -0.00   0.00   0.59     0.01  -0.00  -0.12
   2   6    -0.09   0.01   0.01     0.01  -0.01  -0.25     0.00   0.00   0.05
   3   6    -0.06  -0.01   0.01     0.01  -0.01  -0.23    -0.00   0.00   0.05
   4   6    -0.03   0.01  -0.00     0.00  -0.00   0.02    -0.00  -0.00  -0.00
   5   6     0.01  -0.01  -0.00    -0.00   0.00   0.03    -0.00  -0.00  -0.00
[...]
 119   1     0.00  -0.00   0.00    -0.00  -0.00   0.00     0.00  -0.00   0.00
                    346                    347                    348
                        a                      a                      a 
 Frequencies --  3168.5611              3168.7348              3168.8728
 Red. masses --     1.9735                 1.9742                 1.9743
 Frc consts  --     0.0000                 0.0000                 0.0000
 IR Inten    --   475.0930              4924.7093             10321.5576
 Raman Activ --     0.0000                 0.0000                 0.0000
 Depolar     --     0.0000                 0.0000                 0.0000
 Atom AN      X      Y      Z        X      Y      Z        X      Y      Z
   1  27     0.00   0.00  -0.00     0.00  -0.00  -0.00     0.00   0.00  -0.00
   2   6    -0.00   0.00  -0.00    -0.00   0.07  -0.00    -0.00   0.04  -0.00
   3   6    -0.00   0.00  -0.00    -0.10   0.01  -0.00    -0.05   0.00  -0.00
   4   6    -0.00  -0.00   0.00    -0.00  -0.00   0.00    -0.00  -0.00   0.00
   5   6    -0.00   0.00   0.00    -0.00   0.00  -0.00    -0.00   0.00  -0.00
   6   6    -0.00   0.00  -0.00     0.00  -0.00   0.00    -0.00   0.00  -0.00
   7   6    -0.00  -0.00   0.00     0.01   0.00  -0.00    -0.05  -0.00   0.00
   8   6    -0.00  -0.00   0.00     0.00   0.01  -0.00    -0.00  -0.04   0.00
   9   6     0.00  -0.00  -0.00    -0.00   0.00   0.00     0.00  -0.00  -0.00
  10   7     0.00   0.00   0.00    -0.00  -0.00  -0.00     0.00   0.00  -0.00
  11   6     0.00  -0.00   0.00     0.00  -0.00  -0.00    -0.00  -0.00   0.00
  12   6    -0.00   0.00  -0.00    -0.00   0.00  -0.00    -0.00   0.00  -0.00
  13   6     0.00  -0.00  -0.00     0.00  -0.00  -0.00     0.00  -0.00  -0.00
  14   6     0.00   0.00   0.00     0.00  -0.00  -0.00     0.00  -0.00  -0.00
  15   6    -0.00  -0.00  -0.00    -0.00   0.00  -0.00     0.00   0.00  -0.00
  16   7     0.00   0.00   0.00    -0.00  -0.00   0.00     0.00   0.00   0.00
  17   6    -0.00   0.00   0.00     0.00  -0.00   0.00     0.00   0.00   0.00
  18   6    -0.00   0.00   0.00     0.00  -0.00   0.00    -0.00  -0.00   0.00
  19   6    -0.00  -0.00  -0.00     0.00   0.00   0.00     0.00   0.00   0.00
  20   6    -0.00  -0.00  -0.00     0.00   0.00   0.00     0.00   0.00   0.00
  21   6     0.00  -0.00   0.00    -0.00  -0.00  -0.00    -0.00  -0.00   0.00
  22   7     0.00   0.00  -0.00     0.00  -0.00  -0.00     0.00  -0.00  -0.00
  23   6    -0.00  -0.00  -0.00    -0.00   0.00  -0.00    -0.00   0.00  -0.00
  24   6     0.00  -0.00   0.00     0.00   0.00   0.00     0.00   0.00   0.00
  25   7     0.00  -0.00   0.00     0.00  -0.00   0.00     0.00  -0.00   0.00
  26   1     0.00  -0.00   0.00     0.03  -0.23   0.01     0.01  -0.12   0.00
  27   1     0.01  -0.00   0.00     0.32  -0.03   0.01     0.17  -0.02   0.00
  28   1     0.00   0.00  -0.00    -0.05  -0.01   0.00     0.16   0.02  -0.00
  29   1     0.00   0.00  -0.00    -0.00  -0.03   0.00     0.01   0.12  -0.00
  30   1     0.00   0.00   0.00     0.00   0.00   0.00    -0.00   0.00   0.00
  31   1    -0.00   0.00   0.00    -0.00   0.01   0.00    -0.00   0.01   0.00
  32   1    -0.00   0.00   0.00    -0.01   0.00   0.00    -0.01   0.00   0.00
  33   1     0.00   0.00   0.00    -0.00  -0.00  -0.00    -0.00  -0.00  -0.00
  34   1     0.00   0.00   0.00    -0.01  -0.00  -0.00    -0.01  -0.00  -0.00
  35   1     0.00   0.00   0.00    -0.00  -0.01  -0.00    -0.00  -0.01  -0.00
  36   1     0.00   0.00   0.00    -0.00  -0.00   0.00    -0.00  -0.00   0.00
  37  27    -0.00   0.00  -0.00     0.00  -0.00   0.00     0.00   0.00   0.00
  38   6     0.00  -0.05  -0.01    -0.00   0.06   0.01    -0.00   0.09   0.02
  39   6     0.07  -0.00  -0.00    -0.08   0.00   0.00    -0.12   0.01   0.00
  40   6     0.00   0.00   0.00    -0.00  -0.00  -0.00    -0.00  -0.00  -0.00
  41   6     0.00  -0.00  -0.00    -0.00   0.00   0.00    -0.00   0.00   0.00
  42   6    -0.00   0.00   0.00    -0.00   0.00   0.00    -0.00   0.00   0.00
  43   6    -0.07  -0.01  -0.00    -0.05  -0.00  -0.00    -0.11  -0.01  -0.00
  44   6    -0.00  -0.05  -0.01    -0.00  -0.04  -0.01    -0.00  -0.08  -0.02
  45   6     0.00  -0.00   0.00     0.00  -0.00   0.00     0.00  -0.00   0.00
  46   7     0.00   0.00   0.00     0.00   0.00   0.00     0.00   0.00   0.00
  47   6    -0.00  -0.00  -0.00    -0.00  -0.00  -0.00    -0.00  -0.00  -0.00
  48   6     0.00   0.00   0.00    -0.00   0.00  -0.00    -0.00   0.00  -0.00
  49   6    -0.00   0.00   0.00     0.00  -0.01  -0.00     0.00  -0.01  -0.00
  50   6    -0.00   0.00   0.00     0.01  -0.00   0.00     0.01  -0.00   0.00
  51   6     0.00  -0.00   0.00     0.00   0.00   0.00     0.00   0.00   0.00
  52   7     0.00   0.00   0.00    -0.00   0.00   0.00    -0.00   0.00   0.00
  53   6     0.00   0.00  -0.00     0.00  -0.00  -0.00     0.00   0.00  -0.00
  54   6     0.00  -0.00   0.00     0.00  -0.00  -0.00     0.00  -0.00  -0.00
  55   6     0.00   0.00  -0.00     0.01   0.00  -0.00     0.01   0.00  -0.00
  56   6     0.00   0.00   0.00     0.00   0.00   0.00     0.00   0.01   0.00
  57   6    -0.00   0.00   0.00    -0.00  -0.00  -0.00    -0.00  -0.00   0.00
  58   7    -0.00   0.00   0.00    -0.00  -0.00  -0.00    -0.00  -0.00  -0.00
  59   6     0.00  -0.00  -0.00    -0.00   0.00   0.00    -0.00   0.00   0.00
  60   6    -0.00  -0.00   0.00     0.00   0.00  -0.00     0.00   0.00  -0.00
  61   7    -0.00   0.00   0.00     0.00  -0.00  -0.00     0.00  -0.00  -0.00
  62   1    -0.02   0.17   0.04     0.02  -0.19  -0.04     0.03  -0.28  -0.06
  63   1    -0.24   0.02   0.01     0.27  -0.03  -0.01     0.39  -0.04  -0.02
  64   1     0.23   0.02   0.01     0.15   0.02   0.01     0.35   0.04   0.02
  65   1     0.02   0.16   0.03     0.01   0.11   0.02     0.02   0.25   0.05
  66   1    -0.00   0.00   0.00    -0.00   0.00   0.00    -0.00   0.01   0.00
  67   1     0.00  -0.00  -0.00    -0.00   0.02   0.00    -0.00   0.03   0.00
  68   1     0.01  -0.00  -0.00    -0.02   0.00   0.00    -0.03   0.00   0.00
  69   1    -0.00   0.00   0.00    -0.00  -0.00   0.00    -0.00  -0.00   0.00
  70   1    -0.00  -0.00   0.00    -0.02  -0.00   0.00    -0.03  -0.00   0.00
  71   1    -0.00  -0.00  -0.00    -0.00  -0.01  -0.00    -0.00  -0.03  -0.00
  72   1     0.00   0.00   0.00    -0.00  -0.00  -0.00    -0.00  -0.01  -0.00
  73   6     0.00   0.00   0.00     0.00   0.00  -0.00     0.00  -0.00   0.00
  74   6    -0.00   0.00  -0.00    -0.00  -0.00   0.00    -0.00  -0.00   0.00
  75   6     0.00   0.00  -0.00    -0.00  -0.00   0.00     0.00  -0.00   0.00
  76   6    -0.00  -0.00   0.00     0.00  -0.00   0.00    -0.00   0.00  -0.00
  77   6     0.00  -0.00   0.00    -0.00  -0.00   0.00     0.00   0.00  -0.00
  78   6     0.00   0.00  -0.00     0.00   0.00  -0.00    -0.00  -0.00   0.00
  79   6    -0.00  -0.00   0.00     0.00   0.00  -0.00     0.00  -0.00   0.00
  80   6     0.00   0.00  -0.00    -0.00   0.00   0.00    -0.00   0.00  -0.00
  81   6    -0.00   0.00  -0.00     0.00  -0.00  -0.00    -0.00   0.00  -0.00
  82   6     0.00   0.00   0.00     0.00  -0.00  -0.00     0.00  -0.00   0.00
  83   6     0.00   0.00   0.00    -0.00  -0.00  -0.00    -0.00  -0.00  -0.00
  84   6    -0.00  -0.00  -0.00     0.00   0.00   0.00     0.00   0.00   0.00
  85  27    -0.00   0.00   0.00     0.00  -0.00  -0.00    -0.00   0.00   0.00
  86   6     0.00   0.03  -0.00     0.00   0.00  -0.00    -0.00  -0.05   0.01
  87   6     0.05   0.00  -0.00    -0.00  -0.00   0.00    -0.07  -0.00   0.00
  88   6     0.00  -0.00   0.00     0.00   0.00  -0.00    -0.00   0.00  -0.00
  89   6    -0.00   0.00  -0.00    -0.00   0.00  -0.00     0.00  -0.00   0.00
  90   6    -0.00  -0.00   0.00    -0.00  -0.01   0.00     0.00   0.00  -0.00
  91   6    -0.05   0.00  -0.00    -0.16   0.01  -0.00     0.13  -0.01   0.00
  92   6    -0.00   0.04  -0.00    -0.01   0.12  -0.01     0.00  -0.10   0.01
  93   6     0.00   0.00  -0.00     0.01   0.00  -0.00    -0.00  -0.00   0.00
  94   7     0.00  -0.00   0.00     0.00  -0.00   0.00    -0.00   0.00  -0.00
  95   6    -0.00  -0.00  -0.00    -0.00   0.00  -0.00     0.00  -0.00   0.00
  96   6     0.00  -0.00   0.00     0.00  -0.00   0.00     0.00  -0.00   0.00
  97   6    -0.00  -0.07   0.01    -0.00  -0.05   0.01    -0.00  -0.04   0.00
  98   6    -0.09  -0.01   0.00    -0.07  -0.00   0.00    -0.05  -0.00   0.00
  99   6    -0.00   0.00  -0.00    -0.00   0.00  -0.00    -0.00   0.00  -0.00
 100   7     0.00   0.00  -0.00     0.00   0.00  -0.00     0.00   0.00  -0.00
 101   6     0.00  -0.00   0.00    -0.00   0.00  -0.00    -0.00  -0.00   0.00
 102   6     0.00   0.01  -0.00    -0.00  -0.00   0.00     0.00   0.00  -0.00
 103   6     0.18  -0.01   0.00    -0.07   0.01  -0.00     0.03  -0.00   0.00
 104   6     0.01  -0.13   0.01    -0.00   0.05  -0.01     0.00  -0.02   0.00
 105   6    -0.01  -0.00   0.00     0.00   0.00  -0.00    -0.00  -0.00   0.00
 106   7    -0.00   0.00  -0.00     0.00  -0.00   0.00    -0.00   0.00  -0.00
 107   6     0.00  -0.00   0.00    -0.00   0.00  -0.00    -0.00  -0.00   0.00
 108   6    -0.00   0.00  -0.00     0.00  -0.00   0.00     0.00  -0.00   0.00
 109   7    -0.00  -0.00   0.00     0.00  -0.00   0.00     0.00   0.00  -0.00
 110   1    -0.01  -0.10   0.01    -0.00  -0.00   0.00     0.02   0.16  -0.02
 111   1    -0.15  -0.02   0.00     0.01   0.00  -0.00     0.23   0.02  -0.00
 112   1     0.17  -0.02   0.00     0.53  -0.06   0.01    -0.41   0.05  -0.01
 113   1     0.01  -0.12   0.01     0.04  -0.39   0.04    -0.03   0.30  -0.03
 114   1    -0.00   0.00  -0.00    -0.00  -0.00   0.00     0.00   0.01  -0.00
 115   1     0.02   0.21  -0.02     0.02   0.16  -0.02     0.01   0.12  -0.01
 116   1     0.31   0.03  -0.00     0.23   0.02  -0.00     0.17   0.02  -0.00
 117   1    -0.58   0.07  -0.00     0.22  -0.03   0.00    -0.11   0.01  -0.00
 118   1    -0.04   0.42  -0.05     0.02  -0.16   0.02    -0.01   0.08  -0.01
 119   1     0.00   0.01  -0.00    -0.00  -0.00   0.00    -0.00   0.00  -0.00
                    349                    350                    351
                        a                      a                      a 
 Frequencies --  3168.9814              3169.1212              3169.4142
 Red. masses --     1.9743                 1.9734                 1.9740
 Frc consts  --     0.0000                 0.0000                 0.0000
 IR Inten    --    66.2385                48.4771              7726.1256
 Raman Activ --     0.0000                 0.0000                 0.0000
 Depolar     --     0.0000                 0.0000                 0.0000
 Atom AN      X      Y      Z        X      Y      Z        X      Y      Z
   1  27    -0.00   0.00   0.00    -0.00   0.00   0.00     0.00  -0.00  -0.00
   2   6     0.01  -0.13   0.00     0.00  -0.03   0.00    -0.00   0.05  -0.00
   3   6     0.17  -0.01   0.00     0.04  -0.00   0.00    -0.06   0.00  -0.00
   4   6     0.00   0.01  -0.00     0.00   0.00  -0.00    -0.00  -0.00   0.00
   5   6     0.00  -0.00   0.00     0.00  -0.00   0.00    -0.00   0.00  -0.00
   6   6     0.00  -0.00   0.00     0.00  -0.00   0.00    -0.00   0.00  -0.00
   7   6     0.09   0.01  -0.00     0.01   0.00  -0.00    -0.04  -0.00   0.00
   8   6     0.00   0.07  -0.00     0.00   0.01  -0.00    -0.00  -0.03   0.00
   9   6    -0.00   0.00   0.00    -0.00   0.00   0.00     0.00  -0.00  -0.00
  10   7    -0.00  -0.00   0.00    -0.00  -0.00  -0.00     0.00   0.00  -0.00
  11   6     0.00   0.00  -0.00     0.00   0.00  -0.00    -0.00  -0.00   0.00
  12   6     0.00   0.00   0.00     0.00  -0.00   0.00    -0.00  -0.00  -0.00
  13   6    -0.00   0.01   0.00    -0.00   0.00   0.00     0.00  -0.00  -0.00
  14   6    -0.01   0.00   0.00    -0.00   0.00   0.00     0.00  -0.00  -0.00
  15   6    -0.00  -0.00   0.00     0.00  -0.00   0.00     0.00   0.00  -0.00
  16   7     0.00  -0.00  -0.00    -0.00  -0.00  -0.00    -0.00   0.00   0.00
  17   6    -0.00   0.00  -0.00     0.00   0.00  -0.00     0.00  -0.00   0.00
  18   6    -0.00   0.00  -0.00     0.00   0.00  -0.00     0.00  -0.00   0.00
  19   6    -0.01  -0.00  -0.00    -0.00  -0.00  -0.00     0.00   0.00   0.00
  20   6    -0.00  -0.01  -0.00    -0.00  -0.00  -0.00     0.00   0.00   0.00
  21   6     0.00   0.00  -0.00     0.00   0.00  -0.00    -0.00   0.00   0.00
  22   7     0.00   0.00   0.00    -0.00   0.00   0.00    -0.00  -0.00  -0.00
  23   6     0.00  -0.00   0.00     0.00  -0.00   0.00    -0.00   0.00  -0.00
  24   6    -0.01  -0.00  -0.00    -0.00  -0.00  -0.00     0.00   0.00   0.00
  25   7    -0.00   0.00  -0.00    -0.00   0.00  -0.00     0.00  -0.00   0.00
  26   1    -0.04   0.40  -0.01    -0.01   0.10  -0.00     0.02  -0.15   0.00
  27   1    -0.55   0.05  -0.02    -0.14   0.01  -0.00     0.21  -0.02   0.01
  28   1    -0.29  -0.03   0.01    -0.03  -0.00   0.00     0.13   0.01  -0.00
  29   1    -0.02  -0.21   0.00    -0.00  -0.02   0.00     0.01   0.09  -0.00
  30   1     0.00  -0.01  -0.00    -0.00  -0.00   0.00    -0.00   0.00   0.00
  31   1     0.00  -0.03  -0.00     0.00  -0.00  -0.00    -0.00   0.01   0.00
  32   1     0.04  -0.00  -0.00     0.00  -0.00  -0.00    -0.02   0.00   0.00
  33   1     0.00   0.00   0.00    -0.00   0.00   0.00    -0.00  -0.00  -0.00
  34   1     0.04   0.00   0.00     0.00   0.00   0.00    -0.01  -0.00  -0.00
  35   1     0.00   0.03   0.00     0.00   0.00   0.00    -0.00  -0.01  -0.00
  36   1     0.00   0.01  -0.00     0.00   0.00  -0.00    -0.00  -0.00   0.00
  37  27     0.00  -0.00   0.00    -0.00   0.00  -0.00    -0.00  -0.00   0.00
  38   6    -0.00   0.06   0.01     0.00  -0.06  -0.01     0.00  -0.02  -0.00
  39   6    -0.08   0.00   0.00     0.08  -0.00  -0.00     0.02  -0.00  -0.00
  40   6    -0.00  -0.00  -0.00     0.00   0.00   0.00     0.00   0.00   0.00
  41   6    -0.00   0.00   0.00     0.00  -0.00  -0.00     0.00  -0.00  -0.00
  42   6    -0.00   0.00   0.00     0.00  -0.00  -0.00     0.00  -0.00  -0.00
  43   6    -0.06  -0.00  -0.00     0.05   0.00   0.00     0.02   0.00   0.00
  44   6    -0.00  -0.05  -0.01     0.00   0.04   0.01     0.00   0.02   0.00
  45   6     0.00  -0.00   0.00    -0.00   0.00   0.00    -0.00   0.00   0.00
  46   7     0.00   0.00   0.00    -0.00  -0.00  -0.00    -0.00  -0.00  -0.00
  47   6    -0.00  -0.00  -0.00     0.00   0.00   0.00     0.00   0.00   0.00
  48   6    -0.00  -0.00  -0.00     0.00   0.00   0.00     0.00   0.00   0.00
  49   6     0.00  -0.01  -0.00    -0.00   0.01   0.00    -0.00   0.00   0.00
  50   6     0.01  -0.00   0.00    -0.01   0.00  -0.00    -0.00   0.00  -0.00
  51   6     0.00   0.00   0.00    -0.00  -0.00  -0.00    -0.00  -0.00  -0.00
  52   7    -0.00   0.00   0.00     0.00  -0.00  -0.00     0.00  -0.00  -0.00
  53   6     0.00  -0.00  -0.00    -0.00   0.00   0.00    -0.00  -0.00   0.00
  54   6     0.00  -0.00  -0.00    -0.00   0.00   0.00    -0.00   0.00   0.00
  55   6     0.01   0.00  -0.00    -0.01  -0.00   0.00    -0.00  -0.00   0.00
  56   6     0.00   0.01   0.00    -0.00  -0.01  -0.00    -0.00  -0.00  -0.00
  57   6    -0.00  -0.00   0.00     0.00  -0.00  -0.00     0.00  -0.00  -0.00
  58   7    -0.00  -0.00  -0.00     0.00   0.00   0.00     0.00   0.00   0.00
  59   6    -0.00   0.00   0.00     0.00  -0.00  -0.00     0.00  -0.00  -0.00
  60   6     0.00   0.00  -0.00    -0.00  -0.00  -0.00    -0.00  -0.00  -0.00
  61   7     0.00  -0.00  -0.00    -0.00   0.00   0.00    -0.00   0.00   0.00
  62   1     0.02  -0.19  -0.04    -0.02   0.18   0.04    -0.01   0.06   0.01
  63   1     0.26  -0.02  -0.01    -0.25   0.02   0.01    -0.08   0.01   0.00
  64   1     0.21   0.02   0.01    -0.17  -0.02  -0.01    -0.07  -0.01  -0.00
  65   1     0.01   0.15   0.03    -0.01  -0.12  -0.02    -0.01  -0.05  -0.01
  66   1    -0.00   0.00   0.00     0.00  -0.00  -0.00     0.00  -0.00  -0.00
  67   1    -0.00   0.02   0.00     0.00  -0.02  -0.00     0.00  -0.01  -0.00
  68   1    -0.02   0.00   0.00     0.02  -0.00  -0.00     0.01  -0.00  -0.00
  69   1    -0.00  -0.00   0.00     0.00   0.00  -0.00     0.00   0.00  -0.00
  70   1    -0.02  -0.00   0.00     0.02   0.00  -0.00     0.01   0.00  -0.00
  71   1    -0.00  -0.02  -0.00     0.00   0.02   0.00     0.00   0.01   0.00
  72   1    -0.00  -0.00  -0.00     0.00   0.00   0.00     0.00   0.00   0.00
  73   6    -0.00  -0.00  -0.00    -0.00  -0.00   0.00    -0.00   0.00  -0.00
  74   6     0.00   0.00  -0.00     0.00   0.00  -0.00    -0.00  -0.00   0.00
  75   6    -0.00   0.00  -0.00    -0.00  -0.00   0.00     0.00   0.00  -0.00
  76   6     0.00  -0.00   0.00     0.00   0.00  -0.00    -0.00  -0.00   0.00
  77   6     0.00  -0.00   0.00    -0.00   0.00  -0.00     0.00  -0.00   0.00
  78   6    -0.00   0.00  -0.00     0.00  -0.00   0.00    -0.00   0.00  -0.00
  79   6     0.00  -0.00   0.00     0.00  -0.00   0.00     0.00  -0.00   0.00
  80   6    -0.00   0.00  -0.00    -0.00   0.00  -0.00    -0.00   0.00  -0.00
  81   6    -0.00   0.00  -0.00     0.00   0.00  -0.00     0.00   0.00  -0.00
  82   6     0.00  -0.00   0.00    -0.00  -0.00   0.00    -0.00   0.00  -0.00
  83   6    -0.00  -0.00  -0.00     0.00   0.00   0.00     0.00   0.00   0.00
  84   6     0.00   0.00   0.00    -0.00  -0.00  -0.00    -0.00  -0.00   0.00
  85  27     0.00  -0.00  -0.00     0.00   0.00   0.00    -0.00  -0.00  -0.00
  86   6     0.00   0.05  -0.01    -0.00  -0.09   0.01     0.01   0.13  -0.02
  87   6     0.07   0.00  -0.00    -0.12  -0.01   0.00     0.18   0.01  -0.00
  88   6     0.00  -0.00   0.00    -0.00   0.00  -0.00     0.00  -0.01   0.00
  89   6     0.00   0.00  -0.00    -0.00  -0.00   0.00     0.00   0.00  -0.00
  90   6    -0.00   0.00  -0.00     0.00   0.00  -0.00     0.00   0.00  -0.00
  91   6    -0.00  -0.00   0.00     0.02  -0.00   0.00     0.08  -0.01   0.00
  92   6     0.00   0.00  -0.00     0.00  -0.02   0.00     0.00  -0.06   0.01
  93   6     0.00   0.00  -0.00    -0.00   0.00  -0.00    -0.00  -0.00   0.00
  94   7     0.00  -0.00   0.00    -0.00   0.00  -0.00    -0.00   0.00  -0.00
  95   6    -0.00  -0.00   0.00    -0.00  -0.00   0.00    -0.00  -0.00   0.00
  96   6     0.00  -0.00   0.00     0.00  -0.00   0.00     0.00  -0.00   0.00
  97   6    -0.00  -0.03   0.00    -0.01  -0.12   0.01    -0.00  -0.06   0.01
  98   6    -0.05  -0.00   0.00    -0.17  -0.01   0.00    -0.09  -0.01   0.00
  99   6    -0.00   0.00  -0.00    -0.00   0.01  -0.00    -0.00   0.00  -0.00
 100   7     0.00   0.00  -0.00     0.00   0.00  -0.00     0.00   0.00  -0.00
 101   6    -0.00  -0.00   0.00    -0.00  -0.00   0.00    -0.00  -0.00   0.00
 102   6    -0.00  -0.00   0.00    -0.00  -0.00   0.00    -0.00  -0.00   0.00
 103   6    -0.03   0.00  -0.00    -0.06   0.01  -0.00    -0.07   0.01  -0.00
 104   6    -0.00   0.02  -0.00    -0.00   0.05  -0.01    -0.00   0.05  -0.01
 105   6     0.00   0.00  -0.00     0.00   0.00  -0.00     0.00   0.00  -0.00
 106   7     0.00  -0.00   0.00     0.00  -0.00   0.00     0.00  -0.00   0.00
 107   6     0.00   0.00  -0.00    -0.00  -0.00  -0.00     0.00   0.00  -0.00
 108   6    -0.00   0.00  -0.00     0.00  -0.00   0.00    -0.01   0.00  -0.00
 109   7    -0.00  -0.00   0.00     0.00   0.00  -0.00    -0.00  -0.00   0.00
 110   1    -0.02  -0.16   0.02     0.03   0.27  -0.03    -0.04  -0.41   0.05
 111   1    -0.22  -0.02   0.00     0.38   0.04  -0.01    -0.57  -0.06   0.01
 112   1     0.00  -0.00   0.00    -0.06   0.01  -0.00    -0.26   0.03  -0.00
 113   1     0.00  -0.00   0.00    -0.00   0.05  -0.01    -0.02   0.19  -0.02
 114   1    -0.00   0.00  -0.00    -0.00   0.01  -0.00     0.00   0.01  -0.00
 115   1     0.01   0.11  -0.01     0.04   0.38  -0.04     0.02   0.20  -0.02
 116   1     0.15   0.02  -0.00     0.55   0.05  -0.01     0.28   0.03  -0.00
 117   1     0.10  -0.01   0.00     0.21  -0.02   0.00     0.22  -0.03   0.00
 118   1     0.01  -0.08   0.01     0.01  -0.15   0.02     0.02  -0.16   0.02
 119   1     0.00  -0.00   0.00    -0.00   0.00  -0.00     0.00  -0.01   0.00
