119
 energy: -215.244674957661 gnorm: 1.101233205006 xtb: 6.4.1 (bd6e46d)
Co       10.46583300000000    0.03079300000000   -0.00863000000000
C        12.79482400000000   -3.11600000000000    1.31405900000000
C        13.71093200000000   -2.17179300000000    1.26377700000000
C        13.29975200000000   -1.11788900000000    0.34248500000000
C        13.91862300000000    0.00645700000000   -0.00392500000000
C        13.21458000000000    1.22640500000000   -0.36803000000000
C        13.54269100000000    2.18646000000000   -1.21550400000000
C        12.50791100000000    3.20274600000000   -1.23240200000000
C        11.57164300000000    2.82628400000000   -0.38551000000000
N        11.97363400000000    1.59327300000000    0.17830700000000
C        10.31056900000000    3.47128300000000   -0.00635800000000
C         9.21535200000000    2.83650100000000    0.34440200000000
C         8.14172600000000    3.15445600000000    1.31343000000000
C         7.30416300000000    2.15770300000000    1.23626400000000
C         7.74246100000000    1.15402000000000    0.25581200000000
N         8.84739900000000    1.59287300000000   -0.22848100000000
C         7.13162600000000   -0.09925100000000   -0.15773600000000
C         7.79578600000000   -1.20375800000000   -0.41216100000000
C         7.42193800000000   -2.26669900000000   -1.36968800000000
C         8.37068500000000   -3.16045500000000   -1.28066900000000
C         9.35640900000000   -2.72300500000000   -0.29779100000000
N         9.00336300000000   -1.57720000000000    0.19900600000000
C        10.58729700000000   -3.37907600000000    0.14793000000000
C        11.71033800000000   -2.73321400000000    0.41505100000000
N        12.03893800000000   -1.48577300000000   -0.18335300000000
H        12.85508600000000   -4.02578100000000    1.93160500000000
H        14.62725900000000   -2.21174200000000    1.84182500000000
H        14.47005600000000    2.20325600000000   -1.81664700000000
H        12.52481000000000    4.10743400000000   -1.84502300000000
H        10.26284600000000    4.56608600000000   -0.01013600000000
H         8.08890500000000    4.03318200000000    1.93842200000000
H         6.39253300000000    2.12203300000000    1.85358800000000
H         6.03337500000000   -0.09634100000000   -0.25700700000000
H         6.55308200000000   -2.31916400000000   -2.01863800000000
H         8.36783900000000   -4.07676400000000   -1.87942800000000
H        10.55181500000000   -4.47487700000000    0.25985500000000
Co       45.36979800000000   -0.01658300000000   -0.01306300000000
C        43.04080700000001    2.83020900000000    1.87044200000000
C        42.12470000000000    1.91171900000000    1.64586800000000
C        42.53588000000000    1.04702200000000    0.54505400000000
C        41.91700900000000    0.00645700000000   -0.00392500000000
C        42.62105100000000   -1.12476800000000   -0.58802800000000
C        42.29294100000000   -1.91093900000000   -1.59889500000000
C        43.32772100000000   -2.90644900000000   -1.80403500000000
C        44.26398900000000   -2.69363200000000   -0.90200500000000
N        43.86199800000000   -1.58662000000000   -0.11923300000000
C        45.52506300000000   -3.39777300000000   -0.64909100000000
C        46.62028000000000   -2.83908100000000   -0.18665800000000
C        47.69390600000000   -3.33128600000000    0.70656400000000
C        48.53146900000000   -2.33751900000000    0.81564900000000
C        48.09317100000000   -1.16937000000000    0.03841400000000
N        46.98823300000001   -1.51076200000000   -0.51888600000000
C        48.70400600000000    0.13886500000000   -0.13545600000000
C        48.03984500000000    1.27139800000000   -0.18056200000000
C        48.41369400000000    2.49352400000000   -0.92427700000000
C        47.46494700000000    3.35525100000000   -0.67099900000000
C        46.47922300000000    2.74305700000000    0.21366500000000
N        46.83226900000000    1.52497800000000    0.48927500000000
C        45.24833500000000    3.30505100000000    0.77335900000000
C        44.12529400000000    2.62084600000000    0.91602700000000
N        43.79669400000001    1.50607100000000    0.09659200000000
H        42.98054500000000    3.60963300000000    2.64604600000000
H        41.20837300000001    1.84373900000000    2.22129400000000
H        41.36557600000000   -1.81592200000000   -2.19271900000000
H        43.31082200000000   -3.68178300000000   -2.57385500000000
H        45.57278600000000   -4.47287100000000   -0.85590500000000
H        47.74672700000000   -4.31070300000000    1.15769100000000
H        49.44309900000000   -2.41699100000000    1.42887400000000
H        49.80225600000000    0.15442100000000   -0.23354300000000
H        49.28255000000000    2.66546800000000   -1.55223000000000
H        47.46779300000001    4.36673300000000   -1.08937600000000
H        45.28381700000000    4.36106800000000    1.08662800000000
C        16.89063400000000    0.01758800000000    0.00011600000000
C        18.10616700000000   -0.00775500000000   -0.01036300000000
C        19.52768400000000   -0.02917900000000   -0.01453900000000
C        20.73624600000000   -0.03138900000000   -0.01443400000000
C        22.15732100000000   -0.01243000000000   -0.01506100000000
C        23.36846300000000    0.01758800000000    0.00011600000000
C        32.46581000000000    0.01758800000000    0.00011600000000
C        33.68134300000000   -0.00775500000000   -0.01036300000000
C        35.10286000000000   -0.02917900000000   -0.01453900000000
C        36.31142100000000   -0.03138900000000   -0.01443400000000
C        37.73249700000000   -0.01243000000000   -0.01506100000000
C        38.94363900000000    0.01758800000000    0.00011600000000
Co       27.95705300000000    0.02920600000000    0.00494400000000
C        25.67724300000000   -3.23224200000000   -0.90472100000000
C        24.72103300000000   -2.33289100000000   -1.00674800000000
C        25.11340700000000   -1.17058700000000   -0.20423200000000
C        24.47829100000000   -0.01931400000000    0.00803400000000
C        25.16374800000000    1.25528600000000    0.23426400000000
C        24.82845800000000    2.33388600000000    0.93850400000000
C        25.85299900000000    3.35320200000000    0.84792200000000
C        26.80359600000000    2.85627800000000    0.07455800000000
N        26.42660200000000    1.53967300000000   -0.34158500000000
C        28.05073600000000    3.46797900000000   -0.34230800000000
C        29.15228800000000    2.80072200000000   -0.67407900000000
C        30.14583400000000    3.05270700000000   -1.70824900000000
C        31.03971700000000    2.09184700000000   -1.60676500000000
C        30.66001900000000    1.17996400000000   -0.50278800000000
N        29.56510400000000    1.62928200000000    0.00457900000000
C        31.31722600000000   -0.01931400000000    0.00803400000000
C        30.69381500000000   -1.08849600000000    0.46955100000000
C        31.07252700000000   -2.02061100000000    1.54502700000000
C        30.13185900000000   -2.93475700000000    1.63089300000000
C        29.12355700000000   -2.63897900000000    0.63346600000000
N        29.46133200000000   -1.58560100000000   -0.01582900000000
C        27.87116400000000   -3.34598600000000    0.30227200000000
C        26.75728700000000   -2.74928900000000   -0.04506900000000
N        26.37517500000000   -1.46653200000000    0.37261400000000
H        25.67758700000000   -4.22331600000000   -1.39595600000000
H        23.81249900000000   -2.45458600000000   -1.58789600000000
H        23.90360600000000    2.45223700000000    1.51543000000000
H        25.88029400000000    4.34236700000000    1.30457300000000
H        28.13667600000000    4.56535700000000   -0.40433100000000
H        30.17850600000000    3.85892300000000   -2.43507300000000
H        31.93277900000000    1.97887900000000   -2.24053900000000
H        31.98727800000000   -1.94620500000000    2.15519600000000
H        30.15090500000000   -3.74836600000000    2.33916000000000
H        27.90964900000000   -4.44594500000000    0.36130900000000
119
 energy: -215.588370907859 gnorm: 0.426866037146 xtb: 6.4.1 (bd6e46d)
Co       10.47525819088582    0.02871807790837   -0.00807062883008
C        12.79459825315108   -3.12409642341838    1.30711723075761
C        13.72345927331368   -2.17073406548951    1.26136281483784
C        13.29446368893923   -1.12057112591192    0.34722098106515
C        13.89774494680699    0.02531549624973   -0.00567375386725
C        13.20252858544434    1.21997293948353   -0.35957192421500
C        13.55304403447558    2.21221300694674   -1.23215224305193
C        12.53590463785568    3.20447668521219   -1.24497468555888
C        11.56433160313366    2.80412447617924   -0.37765082143953
N        11.94624510989248    1.56953455144235    0.17778672883668
C        10.32776503465994    3.47103800687932   -0.00733457319149
C         9.20543638140655    2.82178012283936    0.34501765061507
C         8.14392890978090    3.16156692539978    1.29925088437705
C         7.28115863070563    2.15063555916305    1.23899928483498
C         7.73759928703319    1.15384797314547    0.26980378784249
N         8.88284823781391    1.57078632809736   -0.21205657711407
C         7.12065508925641   -0.07931601440612   -0.15164576387088
C         7.80036752008829   -1.20759183325712   -0.41656844011562
C         7.41443113520690   -2.26545601968677   -1.35820965559644
C         8.37758282828200   -3.17938910460497   -1.27834199938352
C         9.36603378063319   -2.73114485040444   -0.30414457925463
N         9.01778165694818   -1.55093156601684    0.17635904801427
C        10.57018731876006   -3.38514935995282    0.14111126013856
C        11.71595877601474   -2.71760063495211    0.41706784336571
N        12.02666638832203   -1.47575898018514   -0.15823114033780
H        12.84836894500062   -4.02094167052653    1.92476933058445
H        14.63069005832019   -2.20416924073941    1.83947885934893
H        14.46738066872580    2.21012689831507   -1.81757824354061
H        12.53019338939272    4.10430459446510   -1.84571034915715
H        10.27532837023205    4.56265777629242   -0.00496935241939
H         8.09444741093304    4.03176300722770    1.93353813381277
H         6.38950346936035    2.11468737107586    1.85227838746917
H         6.03491149131686   -0.09005611811411   -0.26116842793029
H         6.55490632775849   -2.31160972838729   -2.01254016079406
H         8.37650962753407   -4.07951963445651   -1.87631276207273
H        10.54828211015404   -4.47112402402207    0.25987489599196
Co       45.36040092529698   -0.01466129430451   -0.01213003988509
C        43.04105683553222    2.83945372321526    1.86512631124724
C        42.11217790462896    1.91113899768015    1.64326416779160
C        42.54118673036786    1.04884183737036    0.55019005082253
C        41.93753536791033   -0.01162696033116   -0.00911996528435
C        42.63308512580349   -1.11999294102100   -0.57855425361912
C        42.28258657460139   -1.93314641373650   -1.61998766418276
C        43.29975811662098   -2.90583055782362   -1.81669503686889
C        44.27129758073067   -2.67335562570745   -0.89017638540313
N        43.88933029244324   -1.56317798019588   -0.11538291180760
C        45.50785595530876   -3.39736818915154   -0.65000385028923
C        46.63019404098000   -2.82472919614119   -0.18330899418502
C        47.69169406161743   -3.33563889066077    0.69130204344341
C        48.55447241021098   -2.33106735757564    0.81964415447722
C        48.09805476868133   -1.17179846992294    0.05219342425944
N        46.95278364101487   -1.49211624700707   -0.49865483756523
C        48.71498465609120    0.11813807476881   -0.13316781862028
C        48.03526643396097    1.27598492275789   -0.18419064068722
C        48.42119663140613    2.49016171832999   -0.91322615105708
C        47.45804050351005    3.37342477238314   -0.66519075905989
C        46.46959928939776    2.75225091210693    0.20893415477267
N        46.81784601702397    1.50336195007016    0.46214072570016
C        45.26544671627813    3.31230753063713    0.76778221781372
C        44.11967391542746    2.60515664708788    0.91512532184446
N        43.80896887489155    1.49156578989405    0.11948384997545
H        42.98726633273387    3.60614528970324    2.63843472105173
H        41.20494405019964    1.83674091639129    2.21757941535534
H        41.36825972260615   -1.82249031515126   -2.19492943395243
H        43.30544560231417   -3.67858349133612   -2.57395366239802
H        45.56031192895434   -4.47046970971773   -0.85020807532348
H        47.74118189874098   -4.30840130323949    1.15315418851100
H        49.44613004732164   -2.40952849032414    1.42894833882435
H        49.80072491412385    0.14901809245986   -0.23879069605243
H        49.28072373888045    2.65691079363057   -1.54763774179362
H        47.45911968750250    4.36886247779819   -1.08580175297528
H        45.28735261112511    4.35739053734433    1.08595093731548
C        16.88909659564608    0.01715498858530    0.00042662916789
C        18.11454355768257   -0.00818364703700   -0.01012855755329
C        19.50676162769685   -0.02843033390003   -0.01459022980557
C        20.73053314748898   -0.03039618299695   -0.01449389680113
C        22.08091006072027   -0.01172557513840   -0.01436968429246
C        23.27801017226192    0.03028130948812   -0.00256891536140
C        32.54901802219950    0.02731949353652    0.00132871120910
C        33.74857738344899   -0.00725389936293   -0.00891639387390
C        35.10601568016320   -0.02807265461503   -0.01579381810143
C        36.32960785784554   -0.03065450042482   -0.01485862729300
C        37.72320084576596   -0.01312073178504   -0.01461504460354
C        38.94657331767988    0.01685589215108    0.00047678802092
Co       27.94905740913716    0.03026511588444    0.00421344015477
C        25.67983919780686   -3.25074080630900   -0.89911075011857
C        24.71874790439676   -2.33103621016643   -0.99988809039575
C        25.16540005165712   -1.19361769584030   -0.20975754124524
C        24.55635459621955   -0.00373383079173    0.00766265656982
C        25.21068815068495    1.26428159867578    0.23294160432339
C        24.82282464325071    2.35805193803361    0.94890537227175
C        25.83143009951437    3.35600816528892    0.85498424451466
C        26.81548629207277    2.83988008326496    0.06938556644237
N        26.45979273482501    1.52748757994417   -0.33025064226824
C        28.03746945082493    3.47049803402882   -0.34335484986598
C        29.15923244168654    2.79259036642113   -0.67496842270508
C        30.15010272110552    3.06097072223515   -1.69770348724598
C        31.05616225204297    2.08074112080303   -1.60557746370874
C        30.64196497448737    1.18398751805241   -0.52151638760403
N        29.52408585895706    1.61471003348751   -0.00962739072482
C        31.26607382569717   -0.00553320733457    0.00033982982442
C        30.65448680650666   -1.10763213727898    0.48219916349153
C        31.08066763266794   -2.01716936659372    1.53637267477210
C        30.12638952792177   -2.95099299081417    1.63042229939547
C        29.11164463862735   -2.64989218029080    0.64294768487588
N        29.43681028078658   -1.55568926273696   -0.00618801270605
C        27.88985896986670   -3.35566534386270    0.31104881361900
C        26.74740420508984   -2.74097891467340   -0.05136165918776
N        26.39914434531449   -1.45599293953918    0.34605599015526
H        25.68130134814417   -4.22066527179884   -1.39270489680852
H        23.81414847781544   -2.44506770456252   -1.58325781922742
H        23.90416084418138    2.45415138225703    1.51553535106909
H        25.87155674451342    4.33779774982312    1.30636687854530
H        28.12299411965104    4.56125489464652   -0.40914455408248
H        30.17283070589083    3.85772603057412   -2.42868484156563
H        31.93218580137039    1.97305319492904   -2.23690683764945
H        31.98167145795001   -1.94111242349532    2.14720297047341
H        30.14507325484250   -3.75363834948538    2.33974639914667
H        27.91433489411475   -4.44478700334829    0.35873535440569
119
 energy: -215.746742722509 gnorm: 0.204450471862 xtb: 6.4.1 (bd6e46d)
Co       10.48758702471480    0.02677062585486   -0.00592759512973
C        12.79521498986855   -3.12905221715231    1.29259974735650
C        13.73687408655586   -2.16944403845997    1.25343353922328
C        13.28230720683998   -1.11778687797229    0.35943246124578
C        13.85809654181180    0.05185075385659   -0.00603718098765
C        13.18262026153140    1.21387060387349   -0.35806311428658
C        13.56020538706392    2.24013053669812   -1.24116215382035
C        12.56736584493766    3.20225185973213   -1.24687384964180
C        11.55727652570872    2.77356810486507   -0.37331292368487
N        11.90716897018467    1.53521345506412    0.15746429410638
C        10.35050110081226    3.45933986270743   -0.00698556608114
C         9.20638132546963    2.79574228355422    0.35108729386158
C         8.14567117644845    3.16331479066769    1.27356795730402
C         7.25704703244891    2.14750078975362    1.23179742205683
C         7.73712017027546    1.14955799305533    0.29110027186001
N         8.93451985790834    1.53055860576686   -0.16878040346715
C         7.11433171288442   -0.05796777711326   -0.14327125764320
C         7.81013179304748   -1.20204355317518   -0.42850755793336
C         7.41073894086382   -2.26593965993205   -1.33759423189320
C         8.38083012420868   -3.19897147639611   -1.26640823371655
C         9.37864813644449   -2.73370642362013   -0.31640295489517
N         9.04507538037952   -1.50778386320063    0.12760592129123
C        10.55355913906469   -3.38449590078492    0.13280315430472
C        11.71387429048041   -2.69552825610327    0.42458038715293
N        12.00319039157732   -1.45708155093629   -0.11359281951370
H        12.83692851038642   -4.01501063228315    1.91017968417750
H        14.63888999646505   -2.19095589393735    1.83224186138558
H        14.46560385808570    2.22070733025009   -1.81701994811049
H        12.53758615617133    4.09877218605410   -1.84212186292605
H        10.29801066484538    4.54933716313517   -0.00069257093130
H         8.10350878011000    4.02687665866629    1.91831525188210
H         6.38142682198786    2.10301877348153    1.84742609734730
H         6.03744718204892   -0.08037222155980   -0.26315163684290
H         6.55863335418057   -2.30012022944177   -1.99781549292534
H         8.39054055572344   -4.08691618408875   -1.86780901409946
H        10.54545877857238   -4.46356374072818    0.25551404391665
Co       45.34811082455357   -0.01314320576674   -0.00967494557240
C        43.04045780390682    2.84703250161291    1.85179040788895
C        42.09875147125221    1.91138240108692    1.63520259032697
C        42.55330315420404    1.04389072067109    0.56164955150413
C        41.97670071995540   -0.03745181469539   -0.01443452746524
C        42.65289397578931   -1.11422613758023   -0.57594220020714
C        42.27538196988274   -1.95890462235372   -1.63397415553228
C        43.26830810702045   -2.90330287095268   -1.81812793839825
C        44.27831906175828   -2.64416359426568   -0.88021855139206
N        43.92827977240326   -1.52562580298073   -0.12899722257897
C        45.48509484515832   -3.38594784824858   -0.64746262137199
C        46.62923982455892   -2.80027169069496   -0.17248935401300
C        47.68993884426873   -3.33258329323824    0.66574388179811
C        48.57858096733758   -2.32663604472544    0.81315181920237
C        48.09855238634248   -1.17153949048865    0.07391981543254
N        46.90111209618287   -1.46062561942773   -0.44866540632935
C        48.72131629385949    0.09560183752570   -0.12889690188683
C        48.02550889941208    1.27274631750811   -0.19696466747156
C        48.42488178057506    2.48679545073113   -0.89288612487128
C        47.45478870755529    3.39044886283786   -0.64982625580351
C        46.45698436266563    2.75705482580244    0.19735601571751
N        46.79054374543319    1.47000660950459    0.40622014798307
C        45.28206721952915    3.31322971081244    0.75948068965871
C        44.12174783682428    2.58210926290162    0.91842507565535
N        43.83240075165837    1.46490573783187    0.15994881688707
H        42.99871080080149    3.60303731396081    2.62300019382515
H        41.19674165837456    1.82513723863904    2.20799860692831
H        41.37004454820467   -1.83299740097902   -2.19637982322533
H        43.29805716802755   -3.67381547659332   -2.56939158953081
H        45.53763835130304   -4.45817869541073   -0.84354725744938
H        47.73211434455428   -4.30076449066200    1.13911697583531
H        49.45420483438102   -2.39715668991694    1.42634850915641
H        49.79819802897508    0.13987256732701   -0.24252487253603
H        49.27699103158701    2.64287962741902   -1.53530490519270
H        47.44508481762386    4.37454384586542   -1.07608190786074
H        45.29018025967392    4.35079044697846    1.08025271526996
C        16.88774858238740    0.01662711307322    0.00050947510756
C        18.12070906299924   -0.00847292092811   -0.00992239251507
C        19.47983254495956   -0.02703681135250   -0.01460623202476
C        20.71277143786245   -0.02922957753797   -0.01492114665325
C        22.03306730682182   -0.01291726401137   -0.01198904464920
C        23.25376665581553    0.04485640589738   -0.00532445232457
C        32.58676850958628    0.03441750108604    0.00403702475189
C        33.80476701747055   -0.00927175300793   -0.00621700639655
C        35.12568673707111   -0.02655915532567   -0.01670473947452
C        36.35689552413985   -0.02909979906335   -0.01522364538035
C        37.71771903339658   -0.01424920322120   -0.01422756576326
C        38.94896827450961    0.01501210756620    0.00046203722915
Co       27.94108365213138    0.03244973300604    0.00215938984630
C        25.68370583725961   -3.26840199596518   -0.88580589262163
C        24.71935568400363   -2.32860698914743   -0.98594437447143
C        25.19823776240558   -1.20042732815229   -0.21815045236366
C        24.58460837649627    0.02202588101867    0.00496114500801
C        25.25187018321074    1.26828701080707    0.23258753915780
C        24.81913017988549    2.38406201625487    0.95341416032976
C        25.80716991860848    3.35494620437593    0.85393336611398
C        26.82993495918781    2.81940867387295    0.06924052309998
N        26.50584093017783    1.50510657790600   -0.28918552559440
C        28.01890478757514    3.46843791367628   -0.34646772319875
C        29.15755695719454    2.77667589639531   -0.68105316167697
C        30.15696366886897    3.06643063223353   -1.67722718533336
C        31.07229193770659    2.06988701918081   -1.59682059695368
C        30.63008600209033    1.17795375390796   -0.54568694244477
N        29.46536392204586    1.57956963685449   -0.04969533622261
C        31.25267124181660    0.01062165414714   -0.01060036240843
C        30.62831996890749   -1.11370456552113    0.49397358243762
C        31.08325669645345   -2.01570597501640    1.52074178693091
C        30.12262975630290   -2.96883230196147    1.62013104853322
C        29.09495902728402   -2.65476958825412    0.65724268475123
N        29.39948861528080   -1.50410439176927    0.03050178266244
C        27.90843671400687   -3.36198806809593    0.32121537507712
C        26.74839320668806   -2.73281162634049   -0.06418864248412
N        26.43459829156044   -1.43545826101944    0.28799313373032
H        25.68799024665325   -4.22111905214967   -1.38383528418634
H        23.81831419357055   -2.42931043727945   -1.57098475631426
H        23.90450509818014    2.45741427639788    1.51304295499730
H        25.85733555882252    4.33042270711066    1.30553589469392
H        28.09764922189806    4.55331103807108   -0.41390872605405
H        30.16466398920529    3.85642543186603   -2.41201996806528
H        31.93405972532172    1.96295988874668   -2.22859810062516
H        31.97205140747347   -1.93448866320029    2.13110201552235
H        30.13508992392477   -3.76403930165456    2.33564981808198
H        27.91985833507805   -4.44393141366360    0.35867491381415
119
 energy: -215.841707642212 gnorm: 0.105509282414 xtb: 6.4.1 (bd6e46d)
Co       10.49711158115882    0.02834184495450   -0.00001957248657
C        12.79497703321585   -3.12818610255970    1.27757989388705
C        13.74437417743354   -2.16614108136706    1.24524443482000
C        13.26367555183064   -1.10972617829788    0.38053445613089
C        13.81086519791980    0.07061091791543   -0.00385427546960
C        13.15990768124867    1.20376560326553   -0.36581851964350
C        13.56597817759398    2.26127923843016   -1.24357276870916
C        12.59199223660216    3.20314364999113   -1.23998507307572
C        11.54738204532597    2.74414835982346   -0.37360647413464
N        11.86545773308582    1.49918366429032    0.11789488843300
C        10.37122565999203    3.43905422728750   -0.00504548963693
C         9.22181842398143    2.75975578515910    0.36957625774070
C         8.14978841938008    3.15844709715095    1.24845992442672
C         7.23922645210681    2.14846338360260    1.21577099028135
C         7.74231637297658    1.13762173033300    0.31662002217432
N         8.98768927655652    1.48282047867270   -0.10806276512028
C         7.11597556686374   -0.04185433311672   -0.13519685293454
C         7.82846223257750   -1.18715292436271   -0.45167671497714
C         7.41178206425598   -2.26553868577476   -1.31825798707780
C         8.37941705346652   -3.21300972440563   -1.24838798372347
C         9.39268741957398   -2.72686191227120   -0.33526335583332
N         9.07958031423988   -1.45779166016862    0.06336249869011
C        10.54160060232192   -3.37672208339951    0.12626956669892
C        11.70446836719578   -2.67047637430537    0.44033672582992
N        11.97241239479359   -1.43094258409889   -0.06134819373830
H        12.82519612962587   -4.01328234068372    1.88860870233334
H        14.65067623900276   -2.17624516615240    1.81658485910540
H        14.47160104459985    2.23019461973163   -1.81287226357449
H        12.54268839137592    4.09927579165642   -1.83159517577141
H        10.32294675816421    4.52705108517200   -0.00248241404047
H         8.11237352817964    4.02289206490032    1.89205821924039
H         6.36747693528467    2.09264586504891    1.83350309694181
H         6.04161420562735   -0.07233447564158   -0.25640173976658
H         6.55935402893226   -2.28933611245714   -1.97562807512824
H         8.40359054805054   -4.09960946906119   -1.84950508875632
H        10.54580451920753   -4.45357491112514    0.24396116589765
Co       45.33865694158516   -0.01572169215441   -0.00422081905037
C        43.04067604510360    2.84898963347280    1.83686952386397
C        42.09118223947603    1.90972020304003    1.62650525140466
C        42.57178604260982    1.03203010802092    0.58086476649282
C        42.02335945521652   -0.05626231953904   -0.01582112222372
C        42.67540585646557   -1.10280468494306   -0.58166306008034
C        42.26951768264849   -1.97925103197335   -1.64021082520467
C        43.24364629806934   -2.90543683419857   -1.81148969675733
C        44.28811500139875   -2.61516969835188   -0.87499562780897
N        43.96974629307314   -1.48279009904441   -0.16117123902162
C        45.46430451721204   -3.36634422297901   -0.64173347365467
C        46.61377564008759   -2.76833532907217   -0.14761806090191
C        47.68580496013259   -3.32313737398102    0.64198824783907
C        48.59639279412314   -2.32460312416750    0.79723484024636
C        48.09335272825861   -1.16455046636209    0.10121835404355
N        46.84794252866259   -1.42499047781806   -0.38015904388144
C        48.71967256337339    0.07827106383285   -0.12395021573081
C        48.00718044486375    1.26241038485820   -0.22250073561170
C        48.42383083898714    2.48279760217848   -0.87397519326461
C        47.45619811061101    3.40089272152588   -0.62951705296403
C        46.44293214056245    2.75382889244600    0.17753426073922
N        46.75604019470932    1.43281948904011    0.33384540500382
C        45.29398491009454    3.30679516870768    0.75157947010295
C        44.13110785675705    2.55457362891123    0.92925615519437
N        43.86303132697505    1.42946306366950    0.20648563080333
H        43.01044513443365    3.60535817032673    2.60148712543003
H        41.18491966434262    1.81365178690644    2.18987140836801
H        41.36404075532453   -1.84312719823460   -2.19413236000350
H        43.29294451061050   -3.67624015409462   -2.55911414967587
H        45.51267969113741   -4.43592064744235   -0.84116146592138
H        47.72323775874603   -4.29196303810015    1.11408480460304
H        49.46814657216790   -2.38437672292813    1.41459937005570
H        49.79403472585345    0.13072393816174   -0.23737890839504
H        49.27626269705126    2.62815240582272   -1.51551648859452
H        47.43202791641866    4.38360451670628   -1.05576375390874
H        45.28982608630305    4.34311686569479    1.06702400952779
C        16.87472013730272    0.01665598513970    0.00004135269494
C        18.11951978914676   -0.00841646181423   -0.01036912823005
C        19.45105406774978   -0.02624759990806   -0.01392319153715
C        20.69090912313018   -0.02833232297805   -0.01576223417604
C        22.00433652017287   -0.01277763484895   -0.01052864248284
C        23.23082014643855    0.05643242896261   -0.00385803767823
C        32.61679094450742    0.03653744855406    0.00210693170803
C        33.84119352168193   -0.01293568181720   -0.00462323357627
C        35.15247763040277   -0.02565821034193   -0.01487110617836
C        36.39032036047273   -0.02761520146285   -0.01554919438654
C        37.72234210366480   -0.01561785174049   -0.01443636206629
C        38.96515636646449    0.01267377995481   -0.00032472932409
Co       27.93887266145272    0.03586344054495   -0.00216126006548
C        25.68933567637423   -3.27914543547424   -0.87167828947572