      -----------------------------------------------------------      
     |                   =====================                   |     
     |                           x T B                           |     
     |                   =====================                   |     
     |                         S. Grimme                         |     
     |          Mulliken Center for Theoretical Chemistry        |     
     |                    University of Bonn                     |     
      -----------------------------------------------------------      

   * xtb version 6.4.1 (bd6e46d) compiled by 'conda@4901f00b25ba' on 2021-06-10

   xtb is free software: you can redistribute it and/or modify it under
   the terms of the GNU Lesser General Public License as published by
   the Free Software Foundation, either version 3 of the License, or
   (at your option) any later version.
   
   xtb is distributed in the hope that it will be useful,
   but WITHOUT ANY WARRANTY; without even the implied warranty of
   MERCHANTABILITY or FITNESS FOR A PARTICULAR PURPOSE.  See the
   GNU Lesser General Public License for more details.
   
   Cite this work as:
   * C. Bannwarth, E. Caldeweyher, S. Ehlert, A. Hansen, P. Pracht,
     J. Seibert, S. Spicher, S. Grimme, WIREs Comput. Mol. Sci., 2020, 11,
     e01493. DOI: 10.1002/wcms.1493
   
   for GFN2-xTB:
   * C. Bannwarth, S. Ehlert and S. Grimme., J. Chem. Theory Comput., 2019,
     15, 1652-1671. DOI: 10.1021/acs.jctc.8b01176
   for GFN1-xTB:
   * S. Grimme, C. Bannwarth, P. Shushkov, J. Chem. Theory Comput., 2017,
     13, 1989-2009. DOI: 10.1021/acs.jctc.7b00118
   for GFN0-xTB:
   * P. Pracht, E. Caldeweyher, S. Ehlert, S. Grimme, ChemRxiv, 2019, preprint.
     DOI: 10.26434/chemrxiv.8326202.v1
   for GFN-FF:
   * S. Spicher and S. Grimme, Angew. Chem. Int. Ed., 2020, 59, 15665-15673.
     DOI: 10.1002/anie.202004239
   
   for DFT-D4:
   * E. Caldeweyher, C. Bannwarth and S. Grimme, J. Chem. Phys., 2017,
     147, 034112. DOI: 10.1063/1.4993215
   * E. Caldeweyher, S. Ehlert, A. Hansen, H. Neugebauer, S. Spicher,
     C. Bannwarth and S. Grimme, J. Chem. Phys., 2019, 150, 154122.
     DOI: 10.1063/1.5090222
   * E. Caldeweyher, J.-M. Mewes, S. Ehlert and S. Grimme, Phys. Chem. Chem. Phys.
     2020, 22, 8499-8512. DOI: 10.1039/D0CP00502A
   
   for sTDA-xTB:
   * S. Grimme and C. Bannwarth, J. Chem. Phys., 2016, 145, 054103.
     DOI: 10.1063/1.4959605
   
   in the mass-spec context:
   * V. Asgeirsson, C. Bauer and S. Grimme, Chem. Sci., 2017, 8, 4879.
     DOI: 10.1039/c7sc00601b
   * J. Koopman and S. Grimme, ACS Omega 2019, 4, 12, 15120-15133.
     DOI: 10.1021/acsomega.9b02011
   
   for metadynamics refer to:
   * S. Grimme, J. Chem. Theory Comput., 2019, 155, 2847-2862
     DOI: 10.1021/acs.jctc.9b00143
   
   for SPH calculations refer to:
   * S. Spicher and S. Grimme, J. Chem. Theory Comput., 2021, 17, 1701-1714
     DOI: 10.1021/acs.jctc.0c01306
   
   with help from (in alphabetical order)
   P. Atkinson, C. Bannwarth, F. Bohle, G. Brandenburg, E. Caldeweyher
   M. Checinski, S. Dohm, S. Ehlert, S. Ehrlich, I. Gerasimov, J. Koopman
   C. Lavigne, S. Lehtola, F. März, M. Müller, F. Musil, H. Neugebauer
   J. Pisarek, C. Plett, P. Pracht, J. Seibert, P. Shushkov, S. Spicher
   M. Stahn, M. Steiner, T. Strunk, J. Stückrath, T. Rose, and J. Unsleber
   
 * started run on 2021/11/21 at 21:09:57.428     

           -------------------------------------------------
          |                Calculation Setup                |
           -------------------------------------------------

          program call               : /home/jeff/miniconda3/bin/xtb /home/jeff/chem/final-year-proejct/free_base/_2_4_outenergy/input_structure.xyz --gfn 2 --parallel 1 --etemp 300 --chrg 0 --uhf 0 -I det_control.in
          coordinate file            : /home/jeff/chem/final-year-proejct/free_base/_2_4_outenergy/input_structure.xyz
          omp threads                :                     1
          number of atoms            :                   152
          number of electrons        :                   474
          charge                     :                     0
          spin                       :                   0.0
          first test random number   :      0.29089963316481

   ID    Z sym.   atoms
    1    6 C      1-8, 10-14, 16-20, 22, 23, 38-45, 47-51, 53-57, 59, 60,
                  75-88, 90-94, 96-100, 102, 103, 117-124, 126-130, 132-136,
                  138, 139
    2    7 N      9, 15, 21, 24, 46, 52, 58, 61, 89, 95, 101, 104, 125, 131,
                  137, 140
    3    1 H      25-37, 62-74, 105-116, 141-152

           -------------------------------------------------
          |                 G F N 2 - x T B                 |
           -------------------------------------------------

        Reference                      10.1021/acs.jctc.8b01176
      * Hamiltonian:
        H0-scaling (s, p, d)           1.850000    2.230000    2.230000
        zeta-weighting                 0.500000
      * Dispersion:
        s8                             2.700000
        a1                             0.520000
        a2                             5.000000
        s9                             5.000000
      * Repulsion:
        kExp                           1.500000    1.000000
        rExp                           1.000000
      * Coulomb:
        alpha                          2.000000
        third order                    shell-resolved
        anisotropic                    true
        a3                             3.000000
        a5                             4.000000
        cn-shift                       1.200000
        cn-exp                         4.000000
        max-rad                        5.000000


          ...................................................
          :                      SETUP                      :
          :.................................................:
          :  # basis functions                 458          :
          :  # atomic orbitals                 458          :
          :  # shells                          254          :
          :  # electrons                       474          :
          :  max. iterations                   250          :
          :  Hamiltonian                  GFN2-xTB          :
          :  restarted?                      false          :
          :  GBSA solvation                  false          :
          :  PC potential                    false          :
          :  electronic temp.          300.0000000     K    :
          :  accuracy                    1.0000000          :
          :  -> integral cutoff          0.2500000E+02      :
          :  -> integral neglect         0.1000000E-07      :
          :  -> SCF convergence          0.1000000E-05 Eh   :
          :  -> wf. convergence          0.1000000E-03 e    :
          :  Broyden damping             0.4000000          :
          ...................................................

 iter      E             dE          RMSdq      gap      omega  full diag
   1   -260.4504167 -0.260450E+03  0.484E+00    0.59       0.0  T
   2   -260.8461283 -0.395712E+00  0.319E+00    0.87       1.0  T
   3   -260.7962935  0.498348E-01  0.147E+00    0.70       1.0  T
   4   -260.8216594 -0.253659E-01  0.670E-01    0.85       1.0  T
   5   -260.9169528 -0.952934E-01  0.227E-01    0.83       1.0  T
   6   -260.9285418 -0.115891E-01  0.784E-02    0.83       1.0  T
   7   -260.9288874 -0.345546E-03  0.522E-02    0.84       1.0  T
   8   -260.9294190 -0.531580E-03  0.222E-02    0.83       1.0  T
   9   -260.9294977 -0.786985E-04  0.117E-02    0.83       1.0  T
  10   -260.9295092 -0.115681E-04  0.703E-03    0.83       1.2  T
  11   -260.9295213 -0.120574E-04  0.157E-03    0.83       5.2  T
  12   -260.9295217 -0.371606E-06  0.623E-04    0.83      13.0  T
  13   -260.9295217 -0.374257E-07  0.305E-04    0.83      26.6  T

   *** convergence criteria satisfied after 13 iterations ***

         #    Occupation            Energy/Eh            Energy/eV
      -------------------------------------------------------------
         1        2.0000           -0.6841159             -18.6157
       ...           ...                  ...                  ...
       231        2.0000           -0.3691462             -10.0450
       232        2.0000           -0.3684573             -10.0262
       233        2.0000           -0.3682574             -10.0208
       234        2.0000           -0.3668813              -9.9833
       235        2.0000           -0.3606622              -9.8141
       236        2.0000           -0.3527147              -9.5979
       237        2.0000           -0.3447996              -9.3825 (HOMO)
       238        0.0000           -0.3141582              -8.5487 (LUMO)
       239                         -0.3053198              -8.3082
       240                         -0.2981285              -8.1125
       241                         -0.2978885              -8.1060
       242                         -0.2975263              -8.0961
       ...                                ...                  ...
       458                          1.4110538              38.3967
      -------------------------------------------------------------
                  HL-Gap            0.0306413 Eh            0.8338 eV
             Fermi-level           -0.3294788 Eh           -8.9656 eV

 SCC (total)                   0 d,  0 h,  0 min,  0.935 sec
 SCC setup                      ...        0 min,  0.004 sec (  0.394%)
 Dispersion                     ...        0 min,  0.008 sec (  0.873%)
 classical contributions        ...        0 min,  0.001 sec (  0.123%)
 integral evaluation            ...        0 min,  0.064 sec (  6.873%)
 iterations                     ...        0 min,  0.617 sec ( 65.995%)
 molecular gradient             ...        0 min,  0.235 sec ( 25.159%)
 printout                       ...        0 min,  0.005 sec (  0.580%)

         :::::::::::::::::::::::::::::::::::::::::::::::::::::
         ::                     SUMMARY                     ::
         :::::::::::::::::::::::::::::::::::::::::::::::::::::
         :: total energy            -256.248017921949 Eh    ::
         :: gradient norm              0.000750088789 Eh/a0 ::
         :: HOMO-LUMO gap              0.833793532811 eV    ::
         ::.................................................::
         :: SCC energy              -260.929521707861 Eh    ::
         :: -> isotropic ES            0.136123259716 Eh    ::
         :: -> anisotropic ES         -0.011054164648 Eh    ::
         :: -> anisotropic XC          0.165526993269 Eh    ::
         :: -> dispersion             -0.221903429088 Eh    ::
         :: repulsion energy           4.685114073925 Eh    ::
         :: add. restraining           0.000000000000 Eh    ::
         :: total charge               0.000000000029 e     ::
         :::::::::::::::::::::::::::::::::::::::::::::::::::::

           -------------------------------------------------
          |                Property Printout                |
           -------------------------------------------------

    * Orbital Energies and Occupations

         #    Occupation            Energy/Eh            Energy/eV
      -------------------------------------------------------------
         1        2.0000           -0.6841159             -18.6157
       ...           ...                  ...                  ...
       225        2.0000           -0.3724408             -10.1346
       226        2.0000           -0.3716968             -10.1144
       227        2.0000           -0.3716543             -10.1132
       228        2.0000           -0.3707170             -10.0877
       229        2.0000           -0.3706369             -10.0855
       230        2.0000           -0.3693568             -10.0507
       231        2.0000           -0.3691462             -10.0450
       232        2.0000           -0.3684573             -10.0262
       233        2.0000           -0.3682574             -10.0208
       234        2.0000           -0.3668813              -9.9833
       235        2.0000           -0.3606622              -9.8141
       236        2.0000           -0.3527147              -9.5979
       237        2.0000           -0.3447996              -9.3825 (HOMO)
       238        0.0000           -0.3141582              -8.5487 (LUMO)
       239                         -0.3053198              -8.3082
       240                         -0.2981285              -8.1125
       241                         -0.2978885              -8.1060
       242                         -0.2975263              -8.0961
       243                         -0.2971419              -8.0856
       244                         -0.2954015              -8.0383
       245                         -0.2881221              -7.8402
       246                         -0.2667003              -7.2573
       247                         -0.2595903              -7.0638
       248                         -0.2544482              -6.9239
       ...                                ...                  ...
       458                          1.4110538              38.3967
      -------------------------------------------------------------
                  HL-Gap            0.0306413 Eh            0.8338 eV
             Fermi-level           -0.3294788 Eh           -8.9656 eV

     #   Z          covCN         q      C6AA      α(0)
     1   6 C        3.016    -0.055    29.345     8.886
     2   6 C        3.010    -0.054    29.312     8.881
     3   6 C        3.193     0.086    25.605     8.252
     4   6 C        2.952     0.013    27.725     8.636
     5   6 C        3.095     0.064    26.459     8.430
     6   6 C        3.027    -0.049    29.197     8.863
     7   6 C        3.033    -0.052    29.255     8.872
     8   6 C        3.073     0.064    26.485     8.438
     9   7 N        2.786    -0.081    22.813     7.094
    10   6 C        2.899    -0.055    29.368     8.886
    11   6 C        3.170     0.087    25.718     8.285
    12   6 C        3.012    -0.054    29.316     8.882
    13   6 C        3.009    -0.054    29.319     8.882
    14   6 C        3.174     0.086    25.707     8.281
    15   7 N        1.870    -0.321    29.174     8.006
    16   6 C        2.899    -0.057    29.413     8.892
    17   6 C        3.074     0.065    26.470     8.436
    18   6 C        3.026    -0.051    29.242     8.870
    19   6 C        3.031    -0.051    29.233     8.868
    20   6 C        3.069     0.066    26.465     8.435
    21   7 N        2.787    -0.081    22.816     7.094
    22   6 C        2.899    -0.055    29.368     8.886
    23   6 C        3.174     0.085    25.733     8.285
    24   7 N        1.870    -0.324    29.258     8.018
    25   1 H        0.926     0.018     2.756     2.596
    26   1 H        0.926     0.019     2.744     2.590
    27   1 H        0.926     0.043     2.409     2.427
    28   1 H        0.926     0.041     2.429     2.437
    29   1 H        0.860     0.214     1.037     1.595
    30   1 H        0.925     0.047     2.358     2.402
    31   1 H        0.926     0.019     2.743     2.590
    32   1 H        0.926     0.019     2.742     2.590
    33   1 H        0.926     0.046     2.371     2.408
    34   1 H        0.926     0.042     2.425     2.435
    35   1 H        0.926     0.042     2.426     2.436
    36   1 H        0.860     0.214     1.035     1.594
    37   1 H        0.925     0.047     2.359     2.402
    38   6 C        3.016    -0.055    29.342     8.886
    39   6 C        3.010    -0.053    29.307     8.880
    40   6 C        3.194     0.086    25.598     8.250
    41   6 C        2.952     0.013    27.726     8.636
    42   6 C        3.096     0.064    26.460     8.430
    43   6 C        3.027    -0.050    29.202     8.864
    44   6 C        3.033    -0.052    29.253     8.871
    45   6 C        3.073     0.064    26.484     8.438
    46   7 N        2.785    -0.081    22.812     7.094
    47   6 C        2.899    -0.055    29.372     8.886
    48   6 C        3.171     0.087    25.717     8.284
    49   6 C        3.012    -0.054    29.317     8.882
    50   6 C        3.010    -0.054    29.319     8.882
    51   6 C        3.174     0.086    25.707     8.281
    52   7 N        1.870    -0.321    29.179     8.007
    53   6 C        2.899    -0.057    29.415     8.893
    54   6 C        3.074     0.065    26.470     8.436
    55   6 C        3.026    -0.051    29.241     8.870
    56   6 C        3.031    -0.051    29.233     8.868
    57   6 C        3.069     0.066    26.466     8.435
    58   7 N        2.787    -0.081    22.815     7.094
    59   6 C        2.899    -0.055    29.372     8.886
    60   6 C        3.174     0.085    25.729     8.284
    61   7 N        1.870    -0.324    29.263     8.019
    62   1 H        0.926     0.019     2.756     2.596
    63   1 H        0.926     0.019     2.742     2.589
    64   1 H        0.926     0.043     2.405     2.425
    65   1 H        0.926     0.042     2.428     2.437
    66   1 H        0.860     0.214     1.037     1.595
    67   1 H        0.925     0.047     2.359     2.402
    68   1 H        0.926     0.019     2.743     2.590
    69   1 H        0.926     0.019     2.743     2.590
    70   1 H        0.926     0.046     2.371     2.408
    71   1 H        0.926     0.042     2.425     2.435
    72   1 H        0.926     0.042     2.426     2.436
    73   1 H        0.860     0.214     1.036     1.594
    74   1 H        0.925     0.047     2.360     2.402
    75   6 C        1.993    -0.030    31.839     9.112
    76   6 C        1.991    -0.031    31.865     9.116
    77   6 C        1.991    -0.030    31.849     9.114
    78   6 C        1.991    -0.030    31.846     9.113
    79   6 C        1.992    -0.031    31.864     9.116
    80   6 C        1.994    -0.030    31.836     9.112
    81   6 C        3.017    -0.055    29.338     8.885
    82   6 C        3.009    -0.053    29.304     8.880
    83   6 C        3.193     0.086    25.610     8.252
    84   6 C        2.952     0.013    27.718     8.635
    85   6 C        3.098     0.063    26.467     8.431
    86   6 C        3.025    -0.050    29.208     8.865
    87   6 C        3.037    -0.052    29.254     8.871
    88   6 C        3.072     0.064    26.490     8.439
    89   7 N        2.786    -0.082    22.826     7.096
    90   6 C        2.899    -0.053    29.316     8.878
    91   6 C        3.173     0.085    25.746     8.288
    92   6 C        3.017    -0.055    29.339     8.885
    93   6 C        3.010    -0.053    29.305     8.880
    94   6 C        3.194     0.086    25.604     8.251
    95   7 N        1.871    -0.323    29.233     8.014
    96   6 C        2.952     0.013    27.724     8.636
    97   6 C        3.097     0.063    26.467     8.431
    98   6 C        3.026    -0.050    29.208     8.865
    99   6 C        3.036    -0.052    29.254     8.871
   100   6 C        3.072     0.064    26.494     8.440
   101   7 N        2.786    -0.082    22.826     7.096
   102   6 C        2.899    -0.053    29.316     8.878
   103   6 C        3.172     0.085    25.748     8.289
   104   7 N        1.871    -0.323    29.231     8.014
   105   1 H        0.926     0.019     2.754     2.595
   106   1 H        0.926     0.019     2.748     2.592
   107   1 H        0.926     0.043     2.411     2.428
   108   1 H        0.926     0.041     2.433     2.439
   109   1 H        0.860     0.215     1.034     1.593
   110   1 H        0.925     0.048     2.349     2.397
   111   1 H        0.926     0.019     2.754     2.595
   112   1 H        0.926     0.019     2.749     2.593
   113   1 H        0.926     0.043     2.415     2.430
   114   1 H        0.926     0.041     2.432     2.439
   115   1 H        0.860     0.215     1.034     1.593
   116   1 H        0.925     0.048     2.349     2.397
   117   6 C        3.017    -0.055    29.340     8.885
   118   6 C        3.010    -0.053    29.307     8.880
   119   6 C        3.194     0.086    25.601     8.250
   120   6 C        2.952     0.013    27.725     8.636
   121   6 C        3.097     0.064    26.465     8.431
   122   6 C        3.026    -0.050    29.207     8.865
   123   6 C        3.036    -0.052    29.253     8.871
   124   6 C        3.072     0.064    26.495     8.440
   125   7 N        2.786    -0.081    22.819     7.095
   126   6 C        2.899    -0.053    29.319     8.878
   127   6 C        3.173     0.085    25.742     8.287
   128   6 C        3.017    -0.055    29.336     8.885
   129   6 C        3.009    -0.053    29.307     8.880
   130   6 C        3.195     0.086    25.599     8.249
   131   7 N        1.870    -0.323    29.239     8.015
   132   6 C        2.952     0.013    27.719     8.635
   133   6 C        3.098     0.063    26.465     8.431
   134   6 C        3.025    -0.050    29.206     8.865
   135   6 C        3.036    -0.052    29.252     8.871
   136   6 C        3.073     0.064    26.490     8.439
   137   7 N        2.786    -0.081    22.820     7.095
   138   6 C        2.899    -0.053    29.321     8.878
   139   6 C        3.173     0.085    25.743     8.287
   140   7 N        1.871    -0.323    29.241     8.016
   141   1 H        0.926     0.019     2.754     2.595
   142   1 H        0.926     0.019     2.748     2.592
   143   1 H        0.926     0.043     2.414     2.430
   144   1 H        0.926     0.041     2.431     2.438
   145   1 H        0.860     0.214     1.036     1.594
   146   1 H        0.925     0.048     2.349     2.397
   147   1 H        0.926     0.019     2.753     2.595
   148   1 H        0.926     0.020     2.738     2.588
   149   1 H        0.926     0.043     2.410     2.428
   150   1 H        0.926     0.041     2.431     2.438
   151   1 H        0.860     0.215     1.035     1.593
   152   1 H        0.925     0.048     2.350     2.397

 Mol. C6AA /au·bohr⁶  :     374767.913502
 Mol. C8AA /au·bohr⁸  :    9577192.391413
 Mol. α(0) /au        :        984.711782


Wiberg/Mayer (AO) data.
largest (>0.10) Wiberg bond orders for each atom

 ---------------------------------------------------------------------------
     #   Z sym  total        # sym  WBO       # sym  WBO       # sym  WBO
 ---------------------------------------------------------------------------
     1   6 C    3.960 --     2 C    1.716    23 C    1.115    25 H    0.973
     2   6 C    3.961 --     1 C    1.716     3 C    1.122    26 H    0.969
     3   6 C    3.921 --    24 N    1.361     4 C    1.247     2 C    1.122
     4   6 C    3.940 --     5 C    1.253     3 C    1.247    75 C    1.180
     5   6 C    3.907 --     4 C    1.253     6 C    1.237     9 N    1.225
     6   6 C    3.956 --     7 C    1.593     5 C    1.237    27 H    0.969
     7   6 C    3.948 --     6 C    1.593     8 C    1.224    28 H    0.973
     8   6 C    3.918 --    10 C    1.344     7 C    1.224     9 N    1.203
     9   7 N    3.590 --     5 C    1.225     8 C    1.203    29 H    0.900
    10   6 C    3.921 --    11 C    1.358     8 C    1.344    30 H    0.964
    11   6 C    3.939 --    10 C    1.358    15 N    1.324    12 C    1.107
    12   6 C    3.963 --    13 C    1.731    11 C    1.107    31 H    0.973
    13   6 C    3.962 --    12 C    1.731    14 C    1.109    32 H    0.973
    14   6 C    3.938 --    16 C    1.354    15 N    1.325    13 C    1.109
    15   7 N    3.001 --    14 C    1.325    11 C    1.324
    16   6 C    3.922 --    14 C    1.354    17 C    1.346    33 H    0.965
    17   6 C    3.921 --    16 C    1.346    18 C    1.216    21 N    1.210
    18   6 C    3.949 --    19 C    1.608    17 C    1.216    34 H    0.973
    19   6 C    3.953 --    18 C    1.608    20 C    1.215    35 H    0.973
    20   6 C    3.916 --    22 C    1.342    19 C    1.215    21 N    1.211
    21   7 N    3.586 --    20 C    1.211    17 C    1.210    36 H    0.900
    22   6 C    3.937 --    23 C    1.366    20 C    1.342    37 H    0.964
    23   6 C    3.925 --    22 C    1.366    24 N    1.300     1 C    1.115
    24   7 N    3.009 --     3 C    1.361    23 C    1.300
    25   1 H    0.999 --     1 C    0.973
    26   1 H    0.999 --     2 C    0.969
    27   1 H    0.998 --     6 C    0.969
    28   1 H    0.998 --     7 C    0.973
    29   1 H    0.954 --     9 N    0.900
    30   1 H    0.997 --    10 C    0.964
    31   1 H    0.999 --    12 C    0.973
    32   1 H    0.999 --    13 C    0.973
    33   1 H    0.997 --    16 C    0.965
    34   1 H    0.998 --    18 C    0.973
    35   1 H    0.998 --    19 C    0.973
    36   1 H    0.954 --    21 N    0.900
    37   1 H    0.997 --    22 C    0.964
    38   6 C    3.960 --    39 C    1.717    60 C    1.115    62 H    0.973
    39   6 C    3.961 --    38 C    1.717    40 C    1.121    63 H    0.970
    40   6 C    3.922 --    61 N    1.359    41 C    1.251    39 C    1.121
    41   6 C    3.940 --    42 C    1.255    40 C    1.251    80 C    1.174
    42   6 C    3.908 --    41 C    1.255    43 C    1.235    46 N    1.224
    43   6 C    3.956 --    44 C    1.594    42 C    1.235    64 H    0.970
    44   6 C    3.949 --    43 C    1.594    45 C    1.223    65 H    0.973
    45   6 C    3.918 --    47 C    1.344    44 C    1.223    46 N    1.203
    46   7 N    3.590 --    42 C    1.224    45 C    1.203    66 H    0.900
    47   6 C    3.922 --    48 C    1.357    45 C    1.344    67 H    0.964
    48   6 C    3.939 --    47 C    1.357    52 N    1.324    49 C    1.107
    49   6 C    3.963 --    50 C    1.731    48 C    1.107    68 H    0.973
    50   6 C    3.962 --    49 C    1.731    51 C    1.109    69 H    0.973
    51   6 C    3.938 --    53 C    1.354    52 N    1.326    50 C    1.109
    52   7 N    3.002 --    51 C    1.326    48 C    1.324
    53   6 C    3.924 --    51 C    1.354    54 C    1.347    70 H    0.965
    54   6 C    3.921 --    53 C    1.347    55 C    1.215    58 N    1.210
    55   6 C    3.949 --    56 C    1.609    54 C    1.215    71 H    0.973
    56   6 C    3.953 --    55 C    1.609    57 C    1.215    72 H    0.973
    57   6 C    3.916 --    59 C    1.343    56 C    1.215    58 N    1.211
    58   7 N    3.586 --    57 C    1.211    54 C    1.210    73 H    0.901
    59   6 C    3.937 --    60 C    1.365    57 C    1.343    74 H    0.964
    60   6 C    3.925 --    59 C    1.365    61 N    1.302    38 C    1.115
    61   7 N    3.009 --    40 C    1.359    60 C    1.302
    62   1 H    0.999 --    38 C    0.973
    63   1 H    0.999 --    39 C    0.970
    64   1 H    0.998 --    43 C    0.970
    65   1 H    0.998 --    44 C    0.973
    66   1 H    0.954 --    46 N    0.900
    67   1 H    0.997 --    47 C    0.964
    68   1 H    0.999 --    49 C    0.973
    69   1 H    0.999 --    50 C    0.973
    70   1 H    0.997 --    53 C    0.965
    71   1 H    0.998 --    55 C    0.973
    72   1 H    0.998 --    56 C    0.973
    73   1 H    0.954 --    58 N    0.901
    74   1 H    0.997 --    59 C    0.964
    75   6 C    3.920 --    76 C    2.564     4 C    1.180
    76   6 C    3.924 --    75 C    2.564    84 C    1.183
    77   6 C    3.921 --    78 C    2.558    96 C    1.187
    78   6 C    3.921 --    77 C    2.558   120 C    1.186
    79   6 C    3.923 --    80 C    2.568   132 C    1.177
    80   6 C    3.919 --    79 C    2.568    41 C    1.174
    81   6 C    3.961 --    82 C    1.715   103 C    1.115   105 H    0.973
    82   6 C    3.961 --    81 C    1.715    83 C    1.124   106 H    0.969
    83   6 C    3.922 --   104 N    1.361    84 C    1.246    82 C    1.124
    84   6 C    3.926 --    85 C    1.248    83 C    1.246    76 C    1.183
    85   6 C    3.908 --    84 C    1.248    86 C    1.240    89 N    1.226
    86   6 C    3.953 --    87 C    1.588    85 C    1.240   107 H    0.969
    87   6 C    3.949 --    86 C    1.588    88 C    1.227   108 H    0.973
    88   6 C    3.914 --    90 C    1.335    87 C    1.227    89 N    1.204
    89   7 N    3.585 --    85 C    1.226    88 C    1.204   109 H    0.896
    90   6 C    3.923 --    91 C    1.371    88 C    1.335   110 H    0.963
    91   6 C    3.927 --    90 C    1.371    95 N    1.295    92 C    1.115
    92   6 C    3.960 --    93 C    1.715    91 C    1.115   111 H    0.973
    93   6 C    3.961 --    92 C    1.715    94 C    1.124   112 H    0.969
    94   6 C    3.921 --    95 N    1.363    96 C    1.244    93 C    1.124
    95   7 N    3.001 --    94 C    1.363    91 C    1.295
    96   6 C    3.926 --    97 C    1.247    94 C    1.244    77 C    1.187
    97   6 C    3.907 --    96 C    1.247    98 C    1.241   101 N    1.226
    98   6 C    3.953 --    99 C    1.588    97 C    1.241   113 H    0.969
    99   6 C    3.949 --    98 C    1.588   100 C    1.227   114 H    0.973
   100   6 C    3.915 --   102 C    1.336    99 C    1.227   101 N    1.204
   101   7 N    3.585 --    97 C    1.226   100 C    1.204   115 H    0.896
   102   6 C    3.922 --   103 C    1.370   100 C    1.336   116 H    0.963
   103   6 C    3.927 --   102 C    1.370   104 N    1.297    81 C    1.115
   104   7 N    3.001 --    83 C    1.361   103 C    1.297
   105   1 H    0.999 --    81 C    0.973
   106   1 H    0.999 --    82 C    0.969
   107   1 H    0.998 --    86 C    0.969
   108   1 H    0.998 --    87 C    0.973
   109   1 H    0.954 --    89 N    0.896
   110   1 H    0.997 --    90 C    0.963
   111   1 H    0.999 --    92 C    0.973
   112   1 H    0.999 --    93 C    0.969
   113   1 H    0.998 --    98 C    0.969
   114   1 H    0.998 --    99 C    0.973
   115   1 H    0.954 --   101 N    0.896
   116   1 H    0.997 --   102 C    0.963
   117   6 C    3.960 --   118 C    1.715   139 C    1.115   141 H    0.973
   118   6 C    3.961 --   117 C    1.715   119 C    1.123   142 H    0.968
   119   6 C    3.921 --   140 N    1.363   120 C    1.244   118 C    1.123
   120   6 C    3.927 --   121 C    1.248   119 C    1.244    78 C    1.186
   121   6 C    3.907 --   120 C    1.248   122 C    1.240   125 N    1.226
   122   6 C    3.953 --   123 C    1.588   121 C    1.240   143 H    0.969
   123   6 C    3.949 --   122 C    1.588   124 C    1.227   144 H    0.973
   124   6 C    3.915 --   126 C    1.337   123 C    1.227   125 N    1.203
   125   7 N    3.586 --   121 C    1.226   124 C    1.203   145 H    0.898
   126   6 C    3.922 --   127 C    1.369   124 C    1.337   146 H    0.963
   127   6 C    3.928 --   126 C    1.369   131 N    1.298   128 C    1.115
   128   6 C    3.961 --   129 C    1.716   127 C    1.115   147 H    0.973
   129   6 C    3.961 --   128 C    1.716   130 C    1.123   148 H    0.970
   130   6 C    3.923 --   131 N    1.359   132 C    1.249   129 C    1.123
   131   7 N    3.000 --   130 C    1.359   127 C    1.298
   132   6 C    3.925 --   133 C    1.251   130 C    1.249    79 C    1.177
   133   6 C    3.909 --   132 C    1.251   134 C    1.239   137 N    1.225
   134   6 C    3.952 --   135 C    1.589   133 C    1.239   149 H    0.971
   135   6 C    3.950 --   134 C    1.589   136 C    1.227   150 H    0.973
   136   6 C    3.914 --   138 C    1.336   135 C    1.227   137 N    1.204
   137   7 N    3.586 --   133 C    1.225   136 C    1.204   151 H    0.898
   138   6 C    3.923 --   139 C    1.371   136 C    1.336   152 H    0.963
   139   6 C    3.927 --   138 C    1.371   140 N    1.295   117 C    1.115
   140   7 N    3.001 --   119 C    1.363   139 C    1.295
   141   1 H    0.999 --   117 C    0.973
   142   1 H    0.999 --   118 C    0.968
   143   1 H    0.998 --   122 C    0.969
   144   1 H    0.998 --   123 C    0.973
   145   1 H    0.954 --   125 N    0.898
   146   1 H    0.997 --   126 C    0.963
   147   1 H    0.999 --   128 C    0.973
   148   1 H    0.999 --   129 C    0.970
   149   1 H    0.998 --   134 C    0.971
   150   1 H    0.998 --   135 C    0.973
   151   1 H    0.954 --   137 N    0.898
   152   1 H    0.997 --   138 C    0.963
 ---------------------------------------------------------------------------

Topologies differ in total number of bonds
Writing topology from bond orders to xtbtopo.mol

molecular dipole:
                 x           y           z       tot (Debye)
 q only:        0.006       0.000      -0.041
   full:        0.006       0.009       0.020       0.058
molecular quadrupole (traceless):
                xx          xy          yy          xz          yz          zz
 q only:       30.554     -41.542      -1.426      -1.544      -1.815     -29.128
  q+dip:       68.794     -20.006      14.770       3.412      -5.867     -83.564
   full:       46.464     -19.005       4.961       3.132      -3.396     -51.425


           -------------------------------------------------
          | TOTAL ENERGY             -256.248017921949 Eh   |
          | GRADIENT NORM               0.000750088789 Eh/α |
          | HOMO-LUMO GAP               0.833793532811 eV   |
           -------------------------------------------------

------------------------------------------------------------------------
 * finished run on 2021/11/21 at 21:09:58.434     
------------------------------------------------------------------------
 total:
 * wall-time:     0 d,  0 h,  0 min,  1.006 sec
 *  cpu-time:     0 d,  0 h,  0 min,  1.006 sec
 * ratio c/w:     1.000 speedup
 SCF:
 * wall-time:     0 d,  0 h,  0 min,  0.937 sec
 *  cpu-time:     0 d,  0 h,  0 min,  0.937 sec
 * ratio c/w:     1.000 speedup

