      -----------------------------------------------------------      
     |                   =====================                   |     
     |                           x T B                           |     
     |                   =====================                   |     
     |                         S. Grimme                         |     
     |          Mulliken Center for Theoretical Chemistry        |     
     |                    University of Bonn                     |     
      -----------------------------------------------------------      

   * xtb version 6.4.1 (bd6e46d) compiled by 'conda@4901f00b25ba' on 2021-06-10

   xtb is free software: you can redistribute it and/or modify it under
   the terms of the GNU Lesser General Public License as published by
   the Free Software Foundation, either version 3 of the License, or
   (at your option) any later version.
   
   xtb is distributed in the hope that it will be useful,
   but WITHOUT ANY WARRANTY; without even the implied warranty of
   MERCHANTABILITY or FITNESS FOR A PARTICULAR PURPOSE.  See the
   GNU Lesser General Public License for more details.
   
   Cite this work as:
   * C. Bannwarth, E. Caldeweyher, S. Ehlert, A. Hansen, P. Pracht,
     J. Seibert, S. Spicher, S. Grimme, WIREs Comput. Mol. Sci., 2020, 11,
     e01493. DOI: 10.1002/wcms.1493
   
   for GFN2-xTB:
   * C. Bannwarth, S. Ehlert and S. Grimme., J. Chem. Theory Comput., 2019,
     15, 1652-1671. DOI: 10.1021/acs.jctc.8b01176
   for GFN1-xTB:
   * S. Grimme, C. Bannwarth, P. Shushkov, J. Chem. Theory Comput., 2017,
     13, 1989-2009. DOI: 10.1021/acs.jctc.7b00118
   for GFN0-xTB:
   * P. Pracht, E. Caldeweyher, S. Ehlert, S. Grimme, ChemRxiv, 2019, preprint.
     DOI: 10.26434/chemrxiv.8326202.v1
   for GFN-FF:
   * S. Spicher and S. Grimme, Angew. Chem. Int. Ed., 2020, 59, 15665-15673.
     DOI: 10.1002/anie.202004239
   
   for DFT-D4:
   * E. Caldeweyher, C. Bannwarth and S. Grimme, J. Chem. Phys., 2017,
     147, 034112. DOI: 10.1063/1.4993215
   * E. Caldeweyher, S. Ehlert, A. Hansen, H. Neugebauer, S. Spicher,
     C. Bannwarth and S. Grimme, J. Chem. Phys., 2019, 150, 154122.
     DOI: 10.1063/1.5090222
   * E. Caldeweyher, J.-M. Mewes, S. Ehlert and S. Grimme, Phys. Chem. Chem. Phys.
     2020, 22, 8499-8512. DOI: 10.1039/D0CP00502A
   
   for sTDA-xTB:
   * S. Grimme and C. Bannwarth, J. Chem. Phys., 2016, 145, 054103.
     DOI: 10.1063/1.4959605
   
   in the mass-spec context:
   * V. Asgeirsson, C. Bauer and S. Grimme, Chem. Sci., 2017, 8, 4879.
     DOI: 10.1039/c7sc00601b
   * J. Koopman and S. Grimme, ACS Omega 2019, 4, 12, 15120-15133.
     DOI: 10.1021/acsomega.9b02011
   
   for metadynamics refer to:
   * S. Grimme, J. Chem. Theory Comput., 2019, 155, 2847-2862
     DOI: 10.1021/acs.jctc.9b00143
   
   for SPH calculations refer to:
   * S. Spicher and S. Grimme, J. Chem. Theory Comput., 2021, 17, 1701-1714
     DOI: 10.1021/acs.jctc.0c01306
   
   with help from (in alphabetical order)
   P. Atkinson, C. Bannwarth, F. Bohle, G. Brandenburg, E. Caldeweyher
   M. Checinski, S. Dohm, S. Ehlert, S. Ehrlich, I. Gerasimov, J. Koopman
   C. Lavigne, S. Lehtola, F. März, M. Müller, F. Musil, H. Neugebauer
   J. Pisarek, C. Plett, P. Pracht, J. Seibert, P. Shushkov, S. Spicher
   M. Stahn, M. Steiner, T. Strunk, J. Stückrath, T. Rose, and J. Unsleber
   
 * started run on 2021/11/21 at 19:09:01.289     

           -------------------------------------------------
          |                Calculation Setup                |
           -------------------------------------------------

          program call               : /home/jeff/miniconda3/bin/xtb /home/jeff/chem/final-year-proejct/Co+2_6_3_outenergy/input_structure.xyz --gfn 2 --parallel 1 --etemp 300 --chrg 0 --uhf 0 -I det_control.in
          coordinate file            : /home/jeff/chem/final-year-proejct/Co+2_6_3_outenergy/input_structure.xyz
          omp threads                :                     1
          number of atoms            :                   119
          number of electrons        :                   407
          charge                     :                     0
          spin                       :                   0.5
          first test random number   :      0.92416753226548

   ID    Z sym.   atoms
    1   27 Co     1, 37, 85
    2    6 C      2-9, 11-15, 17-21, 23, 24, 38-45, 47-51, 53-57, 59, 60,
                  73-84, 86-93, 95-99, 101-105, 107, 108
    3    7 N      10, 16, 22, 25, 46, 52, 58, 61, 94, 100, 106, 109
    4    1 H      26-36, 62-72, 110-119

           -------------------------------------------------
          |                 G F N 2 - x T B                 |
           -------------------------------------------------

        Reference                      10.1021/acs.jctc.8b01176
      * Hamiltonian:
        H0-scaling (s, p, d)           1.850000    2.230000    2.230000
        zeta-weighting                 0.500000
      * Dispersion:
        s8                             2.700000
        a1                             0.520000
        a2                             5.000000
        s9                             5.000000
      * Repulsion:
        kExp                           1.500000    1.000000
        rExp                           1.000000
      * Coulomb:
        alpha                          2.000000
        third order                    shell-resolved
        anisotropic                    true
        a3                             3.000000
        a5                             4.000000
        cn-shift                       1.200000
        cn-exp                         4.000000
        max-rad                        5.000000


          ...................................................
          :                      SETUP                      :
          :.................................................:
          :  # basis functions                 398          :
          :  # atomic orbitals                 395          :
          :  # shells                          209          :
          :  # electrons                       407          :
          :  max. iterations                   250          :
          :  Hamiltonian                  GFN2-xTB          :
          :  restarted?                      false          :
          :  GBSA solvation                  false          :
          :  PC potential                    false          :
          :  electronic temp.          300.0000000     K    :
          :  accuracy                    1.0000000          :
          :  -> integral cutoff          0.2500000E+02      :
          :  -> integral neglect         0.1000000E-07      :
          :  -> SCF convergence          0.1000000E-05 Eh   :
          :  -> wf. convergence          0.1000000E-03 e    :
          :  Broyden damping             0.4000000          :
          ...................................................

 iter      E             dE          RMSdq      gap      omega  full diag
   1   -219.6341633 -0.219634E+03  0.782E+00    0.26       0.0  T
   2   -201.8262333  0.178079E+02  0.107E+01    0.04       1.0  T
   3   -211.1368897 -0.931066E+01  0.719E+00    0.05       1.0  T
   4   -197.7806547  0.133562E+02  0.724E+00    0.20       1.0  T
   5   -191.1702206  0.661043E+01  0.843E+00    0.02       1.0  T
   6   -218.5002381 -0.273300E+02  0.392E+00    0.20       1.0  T
   7   -219.2988259 -0.798588E+00  0.320E+00    0.24       1.0  T
   8   -219.2358633  0.629626E-01  0.305E+00    0.18       1.0  T
   9   -219.4084920 -0.172629E+00  0.290E+00    0.26       1.0  T
  10   -219.7357745 -0.327282E+00  0.258E+00    0.27       1.0  T
  11   -219.7079351  0.278394E-01  0.267E+00    0.13       1.0  T
  12   -219.7729112 -0.649761E-01  0.250E+00    0.08       1.0  T
  13   -219.8674154 -0.945042E-01  0.216E+00    0.19       1.0  T
  14   -220.0221309 -0.154715E+00  0.183E+00    0.03       1.0  T
  15   -219.3261134  0.696017E+00  0.260E+00    0.03       1.0  T
  16   -219.2700021  0.561113E-01  0.270E+00    0.02       1.0  T
  17   -219.5020418 -0.232040E+00  0.230E+00    0.05       1.0  T
  18   -220.0586412 -0.556599E+00  0.175E+00    0.04       1.0  T
  19   -219.9132936  0.145348E+00  0.186E+00    0.05       1.0  T
  20   -220.2479640 -0.334670E+00  0.134E+00    0.00       1.0  T
  21   -220.4382923 -0.190328E+00  0.904E-01    0.01       1.0  T
  22   -220.4980495 -0.597572E-01  0.774E-01    0.00       1.0  T
  23   -219.8120290  0.686021E+00  0.208E+00    0.03       1.0  T
  24   -219.9506143 -0.138585E+00  0.189E+00    0.03       1.0  T
  25   -220.3953771 -0.444763E+00  0.925E-01    0.01       1.0  T
  26   -220.4894135 -0.940364E-01  0.674E-01    0.00       1.0  T
  27   -220.4917987 -0.238522E-02  0.702E-01    0.00       1.0  T
  28   -220.5004610 -0.866226E-02  0.589E-01    0.00       1.0  T
  29   -220.4721275  0.283335E-01  0.776E-01    0.00       1.0  T
  30   -220.4760852 -0.395766E-02  0.716E-01    0.01       1.0  T
  31   -220.4824673 -0.638217E-02  0.618E-01    0.01       1.0  T
  32   -220.4893173 -0.684996E-02  0.517E-01    0.00       1.0  T
  33   -220.4628989  0.264184E-01  0.608E-01    0.00       1.0  T
  34   -220.4909335 -0.280345E-01  0.511E-01    0.01       1.0  T
  35   -220.4845857  0.634772E-02  0.504E-01    0.00       1.0  T
  36   -220.4582917  0.262941E-01  0.616E-01    0.00       1.0  T
  37   -220.5097277 -0.514361E-01  0.306E-01    0.00       1.0  T
  38   -220.4781326  0.315951E-01  0.520E-01    0.00       1.0  T
  39   -220.5094497 -0.313171E-01  0.273E-01    0.00       1.0  T
  40   -220.5099534 -0.503718E-03  0.197E-01    0.00       1.0  T
  41   -220.5011590  0.879437E-02  0.248E-01    0.00       1.0  T
  42   -220.4923792  0.877976E-02  0.305E-01    0.01       1.0  T
  43   -220.5071832 -0.148040E-01  0.148E-01    0.00       1.0  T
  44   -220.5056091  0.157410E-02  0.163E-01    0.01       1.0  T
  45   -220.5108853 -0.527620E-02  0.582E-02    0.00       1.0  T
  46   -220.5110006 -0.115295E-03  0.530E-02    0.00       1.0  T
  47   -220.5113562 -0.355574E-03  0.370E-02    0.00       1.0  T
  48   -220.5113534  0.284882E-05  0.392E-02    0.00       1.0  T
  49   -220.5112588  0.945617E-04  0.450E-02    0.00       1.0  T
  50   -220.5114462 -0.187359E-03  0.346E-02    0.00       1.0  T
  51   -220.5116642 -0.218042E-03  0.125E-02    0.00       1.0  T
  52   -220.5116368  0.274019E-04  0.169E-02    0.00       1.0  T
  53   -220.5116505 -0.137239E-04  0.146E-02    0.00       1.0  T
  54   -220.5116835 -0.329919E-04  0.565E-03    0.00       1.6  T
  55   -220.5116870 -0.346906E-05  0.267E-03    0.00       3.4  T
  56   -220.5116862  0.782172E-06  0.308E-03    0.00       3.0  T
  57   -220.5116862  0.450962E-07  0.313E-03    0.00       2.9  T
  58   -220.5116877 -0.150649E-05  0.140E-03    0.00       6.6  T
  59   -220.5116879 -0.183762E-06  0.853E-04    0.00      10.7  T
  60   -220.5116879 -0.463137E-08  0.732E-04    0.00      12.5  T

   *** convergence criteria satisfied after 60 iterations ***

         #    Occupation            Energy/Eh            Energy/eV
      -------------------------------------------------------------
         1        2.0000           -0.6698840             -18.2285
       ...           ...                  ...                  ...
       198        1.8612           -0.3483973              -9.4804
       199        1.8555           -0.3483553              -9.4792
       200        1.8232           -0.3481446              -9.4735
       201        1.8168           -0.3481072              -9.4725
       202        1.8166           -0.3481061              -9.4724
       203        1.4379           -0.3467880              -9.4366
       204        1.4317           -0.3467731              -9.4362 (HOMO)
       205        1.4310           -0.3467715              -9.4361 (LUMO)
       206                         -0.3114877              -8.4760
       207                         -0.3023899              -8.2284
       208                         -0.2973263              -8.0907
       209                         -0.2968190              -8.0769
       ...                                ...                  ...
       395                          1.7175040              46.7357
      -------------------------------------------------------------
                  HL-Gap            0.0000016 Eh            0.0000 eV
             Fermi-level           -0.3458575 Eh           -9.4113 eV

 SCC (total)                   0 d,  0 h,  0 min,  2.250 sec
 SCC setup                      ...        0 min,  0.003 sec (  0.128%)
 Dispersion                     ...        0 min,  0.007 sec (  0.318%)
 classical contributions        ...        0 min,  0.001 sec (  0.037%)
 integral evaluation            ...        0 min,  0.050 sec (  2.236%)
 iterations                     ...        0 min,  2.030 sec ( 90.229%)
 molecular gradient             ...        0 min,  0.155 sec (  6.884%)
 printout                       ...        0 min,  0.004 sec (  0.168%)

         :::::::::::::::::::::::::::::::::::::::::::::::::::::
         ::                     SUMMARY                     ::
         :::::::::::::::::::::::::::::::::::::::::::::::::::::
         :: total energy            -216.510656859469 Eh    ::
         :: gradient norm              0.000313555211 Eh/a0 ::
         :: HOMO-LUMO gap              0.000044804896 eV    ::
         ::.................................................::
         :: SCC energy              -220.511687854650 Eh    ::
         :: -> isotropic ES            0.048644909205 Eh    ::
         :: -> anisotropic ES          0.025284570181 Eh    ::
         :: -> anisotropic XC          0.128397638348 Eh    ::
         :: -> dispersion             -0.186886552456 Eh    ::
         :: repulsion energy           4.003557356010 Eh    ::
         :: add. restraining           0.000000000000 Eh    ::
         :: total charge               0.000000000000 e     ::
         :::::::::::::::::::::::::::::::::::::::::::::::::::::

           -------------------------------------------------
          |                Property Printout                |
           -------------------------------------------------

    * Orbital Energies and Occupations

         #    Occupation            Energy/Eh            Energy/eV
      -------------------------------------------------------------
         1        2.0000           -0.6698840             -18.2285
       ...           ...                  ...                  ...
       192        2.0000           -0.3620224              -9.8511
       193        1.9993           -0.3534594              -9.6181
       194        1.8910           -0.3486439              -9.4871
       195        1.8823           -0.3485667              -9.4850
       196        1.8823           -0.3485662              -9.4850
       197        1.8712           -0.3484739              -9.4825
       198        1.8612           -0.3483973              -9.4804
       199        1.8555           -0.3483553              -9.4792
       200        1.8232           -0.3481446              -9.4735
       201        1.8168           -0.3481072              -9.4725
       202        1.8166           -0.3481061              -9.4724
       203        1.4379           -0.3467880              -9.4366
       204        1.4317           -0.3467731              -9.4362 (HOMO)
       205        1.4310           -0.3467715              -9.4361 (LUMO)
       206                         -0.3114877              -8.4760
       207                         -0.3023899              -8.2284
       208                         -0.2973263              -8.0907
       209                         -0.2968190              -8.0769
       210                         -0.2968165              -8.0768
       211                         -0.2952562              -8.0343
       212                         -0.2718338              -7.3970
       213                         -0.2648628              -7.2073
       214                         -0.2637037              -7.1757
       215                         -0.2636864              -7.1753
       ...                                ...                  ...
       395                          1.7175040              46.7357
      -------------------------------------------------------------
                  HL-Gap            0.0000016 Eh            0.0000 eV
             Fermi-level           -0.3458575 Eh           -9.4113 eV

     #   Z          covCN         q      C6AA      α(0)
     1  27 Co       3.055     0.103   140.892    24.319
     2   6 C        3.025    -0.053    29.289     8.877
     3   6 C        3.022    -0.051    29.252     8.872
     4   6 C        3.196     0.073    25.875     8.293
     5   6 C        2.956     0.017    27.631     8.622
     6   6 C        3.196     0.073    25.874     8.293
     7   6 C        3.022    -0.051    29.252     8.872
     8   6 C        3.025    -0.053    29.289     8.877
     9   6 C        3.181     0.072    25.984     8.321
    10   7 N        2.630    -0.131    23.858     7.254
    11   6 C        2.905    -0.050    29.240     8.866
    12   6 C        3.177     0.073    25.981     8.323
    13   6 C        3.021    -0.052    29.269     8.874
    14   6 C        3.022    -0.052    29.271     8.875
    15   6 C        3.177     0.073    25.975     8.322
    16   7 N        2.631    -0.130    23.822     7.249
    17   6 C        2.905    -0.052    29.283     8.873
    18   6 C        3.177     0.073    25.974     8.322
    19   6 C        3.022    -0.052    29.271     8.875
    20   6 C        3.021    -0.052    29.269     8.874
    21   6 C        3.177     0.073    25.980     8.323
    22   7 N        2.631    -0.130    23.822     7.249
    23   6 C        2.905    -0.050    29.240     8.866
    24   6 C        3.181     0.072    25.984     8.321
    25   7 N        2.630    -0.131    23.857     7.254
    26   1 H        0.926     0.034     2.527     2.486
    27   1 H        0.926     0.036     2.496     2.471
    28   1 H        0.926     0.036     2.496     2.471
    29   1 H        0.926     0.034     2.527     2.486
    30   1 H        0.926     0.050     2.322     2.383
    31   1 H        0.926     0.035     2.521     2.483
    32   1 H        0.926     0.035     2.522     2.483
    33   1 H        0.926     0.049     2.330     2.387
    34   1 H        0.926     0.035     2.522     2.483
    35   1 H        0.926     0.035     2.521     2.483
    36   1 H        0.926     0.050     2.322     2.383
    37  27 Co       3.055     0.103   140.892    24.319
    38   6 C        3.025    -0.053    29.289     8.877
    39   6 C        3.022    -0.051    29.252     8.872
    40   6 C        3.195     0.073    25.875     8.293
    41   6 C        2.956     0.017    27.631     8.622
    42   6 C        3.196     0.073    25.874     8.293
    43   6 C        3.022    -0.051    29.252     8.872
    44   6 C        3.025    -0.053    29.289     8.877
    45   6 C        3.181     0.072    25.984     8.321
    46   7 N        2.630    -0.131    23.858     7.254
    47   6 C        2.905    -0.050    29.240     8.867
    48   6 C        3.177     0.073    25.980     8.323
    49   6 C        3.021    -0.052    29.269     8.874
    50   6 C        3.022    -0.052    29.271     8.875
    51   6 C        3.177     0.073    25.975     8.322
    52   7 N        2.631    -0.130    23.822     7.249
    53   6 C        2.905    -0.052    29.284     8.873
    54   6 C        3.177     0.073    25.975     8.322
    55   6 C        3.022    -0.052    29.271     8.875
    56   6 C        3.021    -0.052    29.269     8.874
    57   6 C        3.177     0.073    25.981     8.323
    58   7 N        2.631    -0.130    23.822     7.249
    59   6 C        2.905    -0.050    29.240     8.867
    60   6 C        3.181     0.072    25.984     8.321
    61   7 N        2.630    -0.131    23.858     7.254
    62   1 H        0.926     0.034     2.527     2.486
    63   1 H        0.926     0.036     2.496     2.471
    64   1 H        0.926     0.036     2.496     2.471
    65   1 H        0.926     0.034     2.527     2.486
    66   1 H        0.926     0.050     2.322     2.383
    67   1 H        0.926     0.035     2.521     2.483
    68   1 H        0.926     0.035     2.522     2.483
    69   1 H        0.926     0.049     2.330     2.387
    70   1 H        0.926     0.035     2.522     2.483
    71   1 H        0.926     0.035     2.521     2.483
    72   1 H        0.926     0.050     2.322     2.383
    73   6 C        1.993    -0.020    31.575     9.075
    74   6 C        1.963    -0.010    31.345     9.041
    75   6 C        1.965    -0.002    31.133     9.011
    76   6 C        1.965    -0.003    31.137     9.011
    77   6 C        1.963    -0.010    31.341     9.041
    78   6 C        1.993    -0.020    31.579     9.075
    79   6 C        1.993    -0.020    31.577     9.075
    80   6 C        1.963    -0.010    31.340     9.041
    81   6 C        1.965    -0.002    31.136     9.011
    82   6 C        1.965    -0.002    31.131     9.010
    83   6 C        1.963    -0.010    31.345     9.041
    84   6 C        1.993    -0.020    31.573     9.074
    85  27 Co       3.048     0.102   140.900    24.320
    86   6 C        3.025    -0.053    29.287     8.877
    87   6 C        3.023    -0.052    29.255     8.872
    88   6 C        3.197     0.073    25.856     8.289
    89   6 C        2.957     0.017    27.631     8.622
    90   6 C        3.197     0.073    25.856     8.289
    91   6 C        3.023    -0.052    29.253     8.872
    92   6 C        3.025    -0.053    29.287     8.877
    93   6 C        3.183     0.072    25.976     8.318
    94   7 N        2.629    -0.132    23.875     7.257
    95   6 C        2.905    -0.048    29.190     8.859
    96   6 C        3.183     0.072    25.976     8.318
    97   6 C        3.025    -0.053    29.287     8.877
    98   6 C        3.023    -0.052    29.254     8.872
    99   6 C        3.197     0.073    25.857     8.289
   100   7 N        2.629    -0.132    23.874     7.257
   101   6 C        2.957     0.017    27.631     8.622
   102   6 C        3.197     0.073    25.857     8.289
   103   6 C        3.023    -0.052    29.253     8.872
   104   6 C        3.025    -0.053    29.287     8.877
   105   6 C        3.183     0.072    25.976     8.318
   106   7 N        2.629    -0.132    23.875     7.257
   107   6 C        2.905    -0.048    29.190     8.859
   108   6 C        3.183     0.072    25.976     8.318
   109   7 N        2.629    -0.132    23.873     7.257
   110   1 H        0.926     0.034     2.529     2.487
   111   1 H        0.926     0.036     2.500     2.472
   112   1 H        0.926     0.036     2.500     2.473
   113   1 H        0.926     0.034     2.530     2.487
   114   1 H        0.926     0.050     2.318     2.381
   115   1 H        0.926     0.034     2.529     2.487
   116   1 H        0.926     0.036     2.500     2.472
   117   1 H        0.926     0.036     2.500     2.473
   118   1 H        0.926     0.034     2.530     2.487
   119   1 H        0.926     0.050     2.318     2.381

 Mol. C6AA /au·bohr⁶  :     277880.841780
 Mol. C8AA /au·bohr⁸  :    8066386.123396
 Mol. α(0) /au        :        864.967224


Wiberg/Mayer (AO) data.
largest (>0.10) Wiberg bond orders for each atom

 ---------------------------------------------------------------------------
     #   Z sym  total        # sym  WBO       # sym  WBO       # sym  WBO
 ---------------------------------------------------------------------------
     1  27 Co   3.327 --    16 N    0.724    22 N    0.724    25 N    0.722
                            10 N    0.722
     2   6 C    3.952 --     3 C    1.641    24 C    1.174    26 H    0.972
     3   6 C    3.956 --     2 C    1.641     4 C    1.183    27 H    0.970
     4   6 C    3.915 --    25 N    1.261     5 C    1.256     3 C    1.183
     5   6 C    3.947 --     6 C    1.256     4 C    1.256    73 C    1.181
     6   6 C    3.915 --    10 N    1.261     5 C    1.256     7 C    1.183
     7   6 C    3.956 --     8 C    1.641     6 C    1.183    28 H    0.970
     8   6 C    3.952 --     7 C    1.641     9 C    1.174    29 H    0.972
     9   6 C    3.929 --    11 C    1.359    10 N    1.227     8 C    1.174
    10   7 N    3.514 --     6 C    1.261     9 C    1.227     1 Co   0.722
    11   6 C    3.938 --     9 C    1.359    12 C    1.359    30 H    0.963
    12   6 C    3.934 --    11 C    1.359    16 N    1.239    13 C    1.166
    13   6 C    3.957 --    14 C    1.657    12 C    1.166    31 H    0.972
    14   6 C    3.954 --    13 C    1.657    15 C    1.165    32 H    0.972
    15   6 C    3.936 --    17 C    1.358    16 N    1.242    14 C    1.165
    16   7 N    3.509 --    15 C    1.242    12 C    1.239     1 Co   0.724
    17   6 C    3.935 --    18 C    1.358    15 C    1.358    33 H    0.964
    18   6 C    3.936 --    17 C    1.358    22 N    1.242    19 C    1.165
    19   6 C    3.954 --    20 C    1.657    18 C    1.165    34 H    0.972
    20   6 C    3.957 --    19 C    1.657    21 C    1.166    35 H    0.972
    21   6 C    3.934 --    23 C    1.359    22 N    1.239    20 C    1.166
    22   7 N    3.509 --    18 C    1.242    21 C    1.239     1 Co   0.724
    23   6 C    3.938 --    24 C    1.359    21 C    1.359    36 H    0.963
    24   6 C    3.929 --    23 C    1.359    25 N    1.227     2 C    1.174
    25   7 N    3.514 --     4 C    1.261    24 C    1.227     1 Co   0.722
    26   1 H    0.998 --     2 C    0.972
    27   1 H    0.998 --     3 C    0.970
    28   1 H    0.998 --     7 C    0.970
    29   1 H    0.998 --     8 C    0.972
    30   1 H    0.996 --    11 C    0.963
    31   1 H    0.998 --    13 C    0.972
    32   1 H    0.998 --    14 C    0.972
    33   1 H    0.996 --    17 C    0.964
    34   1 H    0.998 --    19 C    0.972
    35   1 H    0.998 --    20 C    0.972
    36   1 H    0.996 --    23 C    0.963
    37  27 Co   3.327 --    52 N    0.724    58 N    0.724    46 N    0.722
                            61 N    0.722
    38   6 C    3.952 --    39 C    1.642    60 C    1.174    62 H    0.972
    39   6 C    3.956 --    38 C    1.642    40 C    1.183    63 H    0.970
    40   6 C    3.915 --    61 N    1.261    41 C    1.256    39 C    1.183
    41   6 C    3.948 --    42 C    1.256    40 C    1.256    84 C    1.181
    42   6 C    3.915 --    46 N    1.261    41 C    1.256    43 C    1.183
    43   6 C    3.956 --    44 C    1.642    42 C    1.183    64 H    0.970
    44   6 C    3.952 --    43 C    1.642    45 C    1.174    65 H    0.972
    45   6 C    3.929 --    47 C    1.359    46 N    1.227    44 C    1.174
    46   7 N    3.514 --    42 C    1.261    45 C    1.227    37 Co   0.722
    47   6 C    3.938 --    45 C    1.359    48 C    1.359    66 H    0.963
    48   6 C    3.934 --    47 C    1.359    52 N    1.239    49 C    1.166
    49   6 C    3.957 --    50 C    1.657    48 C    1.166    67 H    0.972
    50   6 C    3.954 --    49 C    1.657    51 C    1.165    68 H    0.972
    51   6 C    3.936 --    53 C    1.358    52 N    1.242    50 C    1.165
    52   7 N    3.509 --    51 C    1.242    48 C    1.239    37 Co   0.724
    53   6 C    3.935 --    54 C    1.358    51 C    1.358    69 H    0.964
    54   6 C    3.936 --    53 C    1.358    58 N    1.242    55 C    1.165
    55   6 C    3.954 --    56 C    1.657    54 C    1.165    70 H    0.972
    56   6 C    3.957 --    55 C    1.657    57 C    1.166    71 H    0.972
    57   6 C    3.934 --    59 C    1.359    58 N    1.239    56 C    1.166
    58   7 N    3.509 --    54 C    1.242    57 C    1.239    37 Co   0.724
    59   6 C    3.938 --    60 C    1.359    57 C    1.359    72 H    0.963
    60   6 C    3.929 --    59 C    1.359    61 N    1.227    38 C    1.174
    61   7 N    3.514 --    40 C    1.261    60 C    1.227    37 Co   0.722
    62   1 H    0.998 --    38 C    0.972
    63   1 H    0.998 --    39 C    0.970
    64   1 H    0.998 --    43 C    0.970
    65   1 H    0.998 --    44 C    0.972
    66   1 H    0.996 --    47 C    0.963
    67   1 H    0.998 --    49 C    0.972
    68   1 H    0.998 --    50 C    0.972
    69   1 H    0.996 --    53 C    0.964
    70   1 H    0.998 --    55 C    0.972
    71   1 H    0.998 --    56 C    0.972
    72   1 H    0.996 --    59 C    0.963
    73   6 C    3.884 --    74 C    2.449     5 C    1.181    76 C    0.194
    74   6 C    3.931 --    73 C    2.449    75 C    1.329
    75   6 C    3.920 --    76 C    2.362    74 C    1.329    78 C    0.194
    76   6 C    3.922 --    75 C    2.362    77 C    1.329    73 C    0.194
    77   6 C    3.928 --    78 C    2.447    76 C    1.329
    78   6 C    3.884 --    77 C    2.447    89 C    1.184    75 C    0.194
    79   6 C    3.884 --    80 C    2.447   101 C    1.183    82 C    0.193
    80   6 C    3.928 --    79 C    2.447    81 C    1.329
    81   6 C    3.921 --    82 C    2.363    80 C    1.329    84 C    0.194
    82   6 C    3.920 --    81 C    2.363    83 C    1.328    79 C    0.193
    83   6 C    3.931 --    84 C    2.450    82 C    1.328
    84   6 C    3.884 --    83 C    2.450    41 C    1.181    81 C    0.194
    85  27 Co   3.303 --   100 N    0.718   109 N    0.718   106 N    0.718
                            94 N    0.718
    86   6 C    3.953 --    87 C    1.641   108 C    1.175   110 H    0.972
    87   6 C    3.955 --    86 C    1.641    88 C    1.184   111 H    0.970
    88   6 C    3.915 --   109 N    1.264    89 C    1.254    87 C    1.184
    89   6 C    3.938 --    90 C    1.254    88 C    1.254    78 C    1.184
    90   6 C    3.915 --    94 N    1.264    89 C    1.254    91 C    1.184
    91   6 C    3.955 --    92 C    1.641    90 C    1.184   112 H    0.970
    92   6 C    3.953 --    91 C    1.641    93 C    1.175   113 H    0.972
    93   6 C    3.928 --    95 C    1.359    94 N    1.226    92 C    1.175
    94   7 N    3.506 --    90 C    1.264    93 C    1.226    85 Co   0.718
    95   6 C    3.933 --    96 C    1.359    93 C    1.359   114 H    0.963
    96   6 C    3.928 --    95 C    1.359   100 N    1.226    97 C    1.175
    97   6 C    3.953 --    98 C    1.641    96 C    1.175   115 H    0.972
    98   6 C    3.955 --    97 C    1.641    99 C    1.184   116 H    0.970
    99   6 C    3.915 --   100 N    1.264   101 C    1.254    98 C    1.184
   100   7 N    3.506 --    99 C    1.264    96 C    1.226    85 Co   0.718
   101   6 C    3.938 --   102 C    1.254    99 C    1.254    79 C    1.183
   102   6 C    3.915 --   106 N    1.264   101 C    1.254   103 C    1.184
   103   6 C    3.955 --   104 C    1.641   102 C    1.184   117 H    0.970
   104   6 C    3.953 --   103 C    1.641   105 C    1.175   118 H    0.972
   105   6 C    3.928 --   107 C    1.359   106 N    1.226   104 C    1.175
   106   7 N    3.506 --   102 C    1.264   105 C    1.226    85 Co   0.718
   107   6 C    3.933 --   108 C    1.359   105 C    1.359   119 H    0.963
   108   6 C    3.928 --   107 C    1.359   109 N    1.226    86 C    1.175
   109   7 N    3.506 --    88 C    1.264   108 C    1.226    85 Co   0.718
   110   1 H    0.998 --    86 C    0.972
   111   1 H    0.998 --    87 C    0.970
   112   1 H    0.998 --    91 C    0.970
   113   1 H    0.998 --    92 C    0.972
   114   1 H    0.996 --    95 C    0.963
   115   1 H    0.998 --    97 C    0.972
   116   1 H    0.998 --    98 C    0.970
   117   1 H    0.998 --   103 C    0.970
   118   1 H    0.998 --   104 C    0.972
   119   1 H    0.996 --   107 C    0.963
 ---------------------------------------------------------------------------

Topologies differ in total number of bonds
Writing topology from bond orders to xtbtopo.mol

molecular dipole:
                 x           y           z       tot (Debye)
 q only:        0.001      -0.001       0.002
   full:        0.001      -0.001       0.002       0.008
molecular quadrupole (traceless):
                xx          xy          yy          xz          yz          zz
 q only:       43.743       0.162      -2.815       0.150       0.856     -40.928
  q+dip:       86.404       0.308       3.738       0.156       2.099     -90.142
   full:       61.045       0.252      -2.279       0.196       1.248     -58.766


           -------------------------------------------------
          | TOTAL ENERGY             -216.510656859469 Eh   |
          | GRADIENT NORM               0.000313555211 Eh/α |
          | HOMO-LUMO GAP               0.000044804896 eV   |
           -------------------------------------------------

------------------------------------------------------------------------
 * finished run on 2021/11/21 at 19:09:03.595     
------------------------------------------------------------------------
 total:
 * wall-time:     0 d,  0 h,  0 min,  2.307 sec
 *  cpu-time:     0 d,  0 h,  0 min,  2.307 sec
 * ratio c/w:     1.000 speedup
 SCF:
 * wall-time:     0 d,  0 h,  0 min,  2.251 sec
 *  cpu-time:     0 d,  0 h,  0 min,  2.251 sec
 * ratio c/w:     1.000 speedup

