 Entering Gaussian System
 *********************************************
 Gaussian 98:
 frequency output generated by the xtb code
 *********************************************
                         Standard orientation:
 --------------------------------------------------------------------
  Center     Atomic     Atomic              Coordinates (Angstroms)
  Number     Number      Type              X           Y           Z
 --------------------------------------------------------------------
    1         27             0       29.000738    0.004428   -0.006400
    2          6             0       31.497322   -3.406163    0.040053
    3          6             0       32.449388   -2.446252    0.017419
    4          6             0       31.758897   -1.192889    0.003480
    5          6             0       32.423225    0.035077   -0.005370
    6          6             0       31.736866    1.250767    0.005678
    7          6             0       32.404768    2.516224    0.025443
    8          6             0       31.435613    3.458886    0.047396
    9          6             0       30.187073    2.759065    0.035560
   10          7             0       30.382670    1.402937    0.011716
   11          6             0       28.967348    3.400167    0.034415
   12          6             0       27.761287    2.735253   -0.002481
   13          6             0       26.495983    3.408902   -0.030759
   14          6             0       25.550001    2.446208   -0.077682
   15          6             0       26.244612    1.191686   -0.071775
   16          7             0       27.597765    1.378134   -0.027561
   17          6             0       25.599450   -0.026042   -0.093256
   18          6             0       26.266343   -1.231775   -0.060980
   19          6             0       25.594085   -2.498417   -0.055375
   20          6             0       26.557206   -3.443867   -0.006701
   21          6             0       27.810466   -2.747733    0.011325
   22          7             0       27.622760   -1.393837   -0.020192
   23          6             0       29.028253   -3.391244    0.041711
   24          6             0       30.236466   -2.728759    0.034667
   25          7             0       30.407721   -1.369334    0.012318
   26          1             0       31.615097   -4.472165    0.056381
   27          1             0       33.516797   -2.550950    0.012190
   28          1             0       33.470163    2.639909    0.024853
   29          1             0       31.534174    4.526764    0.067274
   30          1             0       28.957756    4.479364    0.053479
   31          1             0       26.375823    4.474897   -0.018166
   32          1             0       24.482585    2.548362   -0.110676
   33          1             0       24.520750   -0.035905   -0.126503
   34          1             0       24.528506   -2.619646   -0.082795
   35          1             0       26.456108   -4.511726    0.013246
   36          1             0       29.037732   -4.470413    0.062385
   37         27             0       82.695569    0.038949   -0.005114
   38          6             0       80.208107    3.404559    0.586577
   39          6             0       79.253723    2.465644    0.396827
   40          6             0       79.940862    1.227906    0.187568
   41          6             0       79.273381    0.017791   -0.010526
   42          6             0       79.956528   -1.186971   -0.186032
   43          6             0       79.285489   -2.438492   -0.362922
   44          6             0       80.252309   -3.373271   -0.503527
   45          6             0       81.502535   -2.681835   -0.416156
   46          7             0       81.310345   -1.339852   -0.216023
   47          6             0       82.720234   -3.313810   -0.544839
   48          6             0       83.927519   -2.652749   -0.485397
   49          6             0       85.190476   -3.311687   -0.647626
   50          6             0       86.138799   -2.357349   -0.530114
   51          6             0       85.447992   -1.123597   -0.291333
   52          7             0       84.094671   -1.312924   -0.270830
   53          6             0       86.096752    0.075421   -0.088735
   54          6             0       85.433414    1.256339    0.166305
   55          6             0       86.109307    2.497984    0.406820
   56          6             0       85.148596    3.423251    0.618384
   57          6             0       83.893161    2.741047    0.499599
   58          7             0       84.077258    1.413751    0.228125
   59          6             0       82.676914    3.376095    0.624077
   60          6             0       81.467079    2.731169    0.485485
   61          7             0       81.292430    1.394898    0.237115
   62          1             0       80.093037    4.454010    0.776029
   63          1             0       78.186710    2.574503    0.398286
   64          1             0       78.219792   -2.559190   -0.373419
   65          1             0       80.151133   -4.430221   -0.655635
   66          1             0       82.726931   -4.380410   -0.710468
   67          1             0       85.307637   -4.362772   -0.827742
   68          1             0       87.205557   -2.453228   -0.591202
   69          1             0       87.175456    0.088230   -0.120746
   70          1             0       87.175425    2.617535    0.409755
   71          1             0       85.252634    4.469472    0.831765
   72          1             0       82.670179    4.435611    0.830229
   73          6             0       33.821163    0.046973   -0.012397
   74          6             0       35.038624    0.055793   -0.016592
   75          6             0       36.381014    0.062059   -0.019143
   76          6             0       37.598613    0.064843   -0.019635
   77          6             0       47.246590    0.053513   -0.025898
   78          6             0       48.464352    0.054927   -0.019584
   79          6             0       49.806360    0.050640   -0.020630
   80          6             0       51.024128    0.045774   -0.016030
   81          6             0       60.672339    0.039040   -0.022271
   82          6             0       61.890124    0.037097   -0.023912
   83          6             0       63.232153    0.033025   -0.026012
   84          6             0       64.449917    0.026607   -0.023901
   85          6             0       74.097818   -0.002558   -0.027261
   86          6             0       75.315374    0.000158   -0.026896
   87          6             0       76.657868    0.002957   -0.023800
   88          6             0       77.875298    0.010405   -0.019165
   89         27             0       42.422509    0.060393   -0.020604
   90          6             0       39.951272   -3.347342    0.367309
   91          6             0       38.991114   -2.401387    0.258733
   92          6             0       39.671299   -1.150475    0.116443
   93          6             0       38.996063    0.064173   -0.020288
   94          6             0       39.673836    1.277272   -0.157079
   95          6             0       38.996314    2.529611   -0.299465
   96          6             0       39.958500    3.473564   -0.407603
   97          6             0       41.211605    2.786919   -0.329732
   98          7             0       41.026329    1.437725   -0.175993
   99          6             0       42.426328    3.432133   -0.403259
  100          6             0       43.639790    2.784487   -0.330496
  101          6             0       44.894269    3.468447   -0.409331
  102          6             0       45.854508    2.522189   -0.303688
  103          6             0       45.174417    1.271332   -0.160895
  104          7             0       43.822341    1.434834   -0.177877
  105          6             0       45.849441    0.056636   -0.023104
  106          6             0       45.171310   -1.156318    0.115592
  107          6             0       45.849025   -2.408573    0.257791
  108          6             0       44.887003   -3.352520    0.367642
  109          6             0       43.633866   -2.665993    0.290434
  110          7             0       43.818991   -1.316871    0.135573
  111          6             0       42.419120   -3.310982    0.364841
  112          6             0       41.205797   -2.663324    0.290092
  113          7             0       41.023400   -1.313790    0.135828
  114          1             0       39.842890   -4.407561    0.488222
  115          1             0       37.924609   -2.513998    0.271252
  116          1             0       37.930010    2.644302   -0.312545
  117          1             0       39.852375    4.533985   -0.528941
  118          1             0       42.427346    4.504749   -0.524914
  119          1             0       45.002578    4.528830   -0.529154
  120          1             0       46.921006    2.634696   -0.317842
  121          1             0       46.915325   -2.523384    0.269194
  122          1             0       44.993291   -4.412863    0.489239
  123          1             0       42.417871   -4.383424    0.487977
  124         27             0       55.848257    0.041920   -0.019971
  125          6             0       53.378548   -3.364472    0.394689
  126          6             0       52.417753   -2.419361    0.283971
  127          6             0       53.097126   -1.169297    0.131033
  128          6             0       52.421255    0.043795   -0.016396
  129          6             0       53.098686    1.256095   -0.164369
  130          6             0       52.420441    2.506787   -0.317099
  131          6             0       53.382049    3.450809   -0.430002
  132          6             0       54.635473    2.765765   -0.344841
  133          7             0       54.450963    1.417407   -0.182752
  134          6             0       55.849822    3.411664   -0.417957
  135          6             0       57.063642    2.765639   -0.337501
  136          6             0       58.317675    3.450596   -0.414375
  137          6             0       59.278499    2.505603   -0.303035
  138          6             0       58.599178    1.254436   -0.159239
  139          7             0       57.247039    1.416619   -0.180087
  140          6             0       59.275192    0.040372   -0.020375
  141          6             0       58.597791   -1.172894    0.119358
  142          6             0       59.275953   -2.424850    0.261756
  143          6             0       58.314284   -3.368924    0.373756
  144          6             0       57.060869   -2.682690    0.298244
  145          7             0       57.245473   -1.333783    0.140878
  146          6             0       55.846525   -3.327709    0.379267
  147          6             0       54.632623   -2.680705    0.308160
  148          7             0       54.449251   -1.332149    0.146889
  149          1             0       53.270882   -4.423945    0.522621
  150          1             0       51.351297   -2.532082    0.301088
  151          1             0       51.354123    2.620753   -0.332382
  152          1             0       53.275218    4.510298   -0.558540
  153          1             0       55.850226    4.483613   -0.545352
  154          1             0       58.425249    4.510714   -0.536990
  155          1             0       60.344934    2.619132   -0.314092
  156          1             0       60.342280   -2.539421    0.272018
  157          1             0       58.421029   -4.429145    0.496114
  158          1             0       55.846234   -4.399802    0.505516
  159         27             0       69.273765    0.011710   -0.022521
  160          6             0       66.795652   -3.388988    0.383316
  161          6             0       65.837375   -2.440504    0.279978
  162          6             0       66.519958   -1.192444    0.125015
  163          6             0       65.847081    0.022226   -0.023345
  164          6             0       66.527576    1.232890   -0.170178
  165          6             0       65.852801    2.485375   -0.323570
  166          6             0       66.816942    3.428268   -0.423537
  167          6             0       68.068459    2.740714   -0.330619
  168          7             0       67.880303    1.391708   -0.178532
  169          6             0       69.284345    3.385821   -0.382242
  170          6             0       70.496294    2.737014   -0.296001
  171          6             0       71.752176    3.420802   -0.350136
  172          6             0       72.710356    2.472014   -0.249213
  173          6             0       72.027618    1.219604   -0.134709
  174          7             0       70.675893    1.385157   -0.160216
  175          6             0       72.700251    0.000800   -0.025609
  176          6             0       72.020021   -1.213487    0.085586
  177          6             0       72.694945   -2.470099    0.200260
  178          6             0       71.730918   -3.412574    0.304918
  179          6             0       70.479305   -2.720809    0.252526
  180          7             0       70.667248   -1.370338    0.114273
  181          6             0       69.263398   -3.361830    0.341835
  182          6             0       68.051468   -2.709349    0.289655
  183          7             0       67.871657   -1.359564    0.134532
  184          1             0       66.685230   -4.448352    0.509939
  185          1             0       64.770671   -2.549715    0.303082
  186          1             0       64.786841    2.601287   -0.347237
  187          1             0       66.713145    4.488588   -0.547512
  188          1             0       69.287605    4.459196   -0.496900
  189          1             0       71.862787    4.482711   -0.452779
  190          1             0       73.777056    2.583500   -0.251245
  191          1             0       73.760962   -2.588238    0.200137
  192          1             0       71.834918   -4.475055    0.408868
  193          1             0       69.260084   -4.435002    0.458424
 --------------------------------------------------------------------
     1 basis functions        1 primitive gaussians
     1 alpha electrons        1 beta electrons

 Harmonic frequencies (cm**-1), IR intensities (km*mol⁻¹),
 Raman scattering activities (A**4/amu), Raman depolarization ratios,
 reduced masses (AMU), force constants (mDyne/A) and normal coordinates:
                      1                      2                      3
                        a                      a                      a 
 Frequencies --   -13.3317               -13.1009                -6.5163
 Red. masses --    11.1606                11.1696                18.5532
 Frc consts  --     0.0000                 0.0000                 0.0000
 IR Inten    --    96.8401                 0.2307                 0.2376
 Raman Activ --     0.0000                 0.0000                 0.0000
 Depolar     --     0.0000                 0.0000                 0.0000
 Atom AN      X      Y      Z        X      Y      Z        X      Y      Z
   1  27     0.01  -0.00   0.05    -0.00  -0.00   0.00    -0.00   0.01   0.06
   2   6    -0.00   0.00   0.25    -0.00   0.00   0.02    -0.00   0.00   0.02
   3   6    -0.00  -0.00   0.13    -0.00  -0.00   0.01    -0.00   0.00   0.02
   4   6    -0.00  -0.00   0.05    -0.00  -0.00   0.00    -0.00   0.00   0.02
   5   6    -0.00  -0.00  -0.01    -0.00  -0.00  -0.00     0.00   0.00   0.03
   6   6     0.00  -0.00   0.05    -0.00  -0.00   0.00     0.00   0.00   0.02
   7   6    -0.00  -0.00   0.13    -0.00  -0.00   0.01     0.00   0.00   0.02
   8   6    -0.00  -0.01   0.26    -0.00  -0.00   0.02     0.00   0.00   0.02
   9   6    -0.00  -0.01   0.22    -0.00  -0.00   0.02     0.00   0.00   0.02
  10   7     0.00  -0.00   0.11    -0.00  -0.00   0.01     0.00   0.00   0.02
  11   6    -0.00  -0.01   0.25    -0.00  -0.00   0.02     0.00   0.00   0.02
  12   6     0.00  -0.00   0.09    -0.00  -0.00   0.01     0.00   0.00   0.02
  13   6     0.01  -0.00  -0.01    -0.00  -0.00  -0.00     0.00   0.00   0.03
  14   6     0.01   0.00  -0.25     0.00  -0.00  -0.02    -0.00   0.00   0.04
  15   6     0.01  -0.00  -0.26     0.00  -0.00  -0.02    -0.00   0.00   0.04
  16   7     0.01  -0.00  -0.06    -0.00  -0.00  -0.01    -0.00   0.00   0.03
  17   6     0.02   0.00  -0.39     0.00  -0.00  -0.03    -0.00   0.00   0.04
  18   6     0.01   0.00  -0.26     0.00  -0.00  -0.02    -0.00   0.00   0.04
  19   6     0.01   0.00  -0.26     0.00   0.00  -0.02    -0.00   0.00   0.04
  20   6     0.00   0.00  -0.02    -0.00   0.00  -0.00    -0.00   0.00   0.03
  21   6    -0.00   0.00   0.09    -0.00   0.00   0.01    -0.00   0.00   0.02
  22   7     0.01   0.00  -0.06    -0.00   0.00  -0.00    -0.00   0.00   0.03
  23   6    -0.00   0.01   0.25    -0.00   0.00   0.02    -0.00   0.00   0.02
  24   6    -0.00   0.00   0.22    -0.00   0.00   0.02    -0.00   0.00   0.02
  25   7    -0.00   0.00   0.11    -0.00   0.00   0.01    -0.00   0.00   0.02
  26   1    -0.00   0.00   0.10    -0.00   0.00   0.01    -0.00   0.00   0.00
  27   1    -0.00  -0.00   0.03    -0.00  -0.00   0.00    -0.00   0.00   0.01
  28   1    -0.00  -0.00   0.03    -0.00  -0.00   0.00     0.00   0.00   0.01
  29   1    -0.00  -0.00   0.10    -0.00  -0.00   0.01     0.00   0.00   0.00
  30   1    -0.00  -0.00   0.10    -0.00  -0.00   0.01     0.00   0.00   0.00
  31   1     0.00  -0.00   0.02    -0.00  -0.00   0.00     0.00   0.00   0.01
  32   1     0.01   0.00  -0.11     0.00   0.00  -0.01    -0.00   0.00   0.01
  33   1     0.01   0.00  -0.16     0.00  -0.00  -0.01    -0.00   0.00   0.01
  34   1     0.00  -0.00  -0.12     0.00  -0.00  -0.01    -0.00   0.00   0.01
  35   1    -0.00   0.00   0.02    -0.00   0.00   0.00    -0.00   0.00   0.01
  36   1    -0.00   0.00   0.10    -0.00   0.00   0.01    -0.00   0.00   0.00
  37  27    -0.00  -0.00   0.00     0.01   0.01  -0.05     0.00   0.01   0.05
  38   6    -0.00  -0.00   0.02     0.00   0.05  -0.25    -0.00   0.00   0.01
  39   6    -0.00  -0.00   0.01     0.00   0.02  -0.13    -0.00   0.00   0.02
  40   6    -0.00  -0.00   0.00     0.00   0.01  -0.05    -0.00   0.00   0.02
  41   6    -0.00  -0.00  -0.00    -0.00   0.00   0.01     0.00   0.00   0.02
  42   6    -0.00  -0.00   0.00    -0.00   0.01  -0.05     0.00   0.00   0.02
  43   6    -0.00  -0.00   0.01    -0.00   0.02  -0.13     0.00   0.00   0.02
  44   6    -0.00  -0.00   0.02    -0.00   0.04  -0.26     0.00   0.00   0.02
  45   6    -0.00  -0.00   0.02    -0.00   0.04  -0.22     0.00   0.00   0.02
  46   7    -0.00  -0.00   0.01    -0.00   0.02  -0.11     0.00   0.00   0.02
  47   6    -0.00  -0.00   0.02    -0.01   0.04  -0.25     0.00   0.00   0.02
  48   6    -0.00  -0.00   0.01     0.00   0.01  -0.09     0.00   0.00   0.02
  49   6    -0.00   0.00  -0.00     0.00  -0.00   0.01     0.00   0.00   0.03
  50   6    -0.00   0.00  -0.02     0.01  -0.04   0.24     0.00   0.00   0.04
  51   6    -0.00   0.00  -0.02     0.01  -0.04   0.25     0.00   0.00   0.03
  52   7    -0.00   0.00  -0.00     0.01  -0.01   0.05     0.00   0.00   0.03
  53   6    -0.00   0.01  -0.03     0.02  -0.07   0.38     0.00   0.00   0.04
  54   6    -0.00   0.00  -0.02     0.01  -0.05   0.26     0.00   0.00   0.03
  55   6    -0.00   0.00  -0.02     0.01  -0.04   0.26    -0.00   0.00   0.03
  56   6    -0.00  -0.00  -0.00     0.00   0.00   0.03    -0.00   0.00   0.02
  57   6    -0.00  -0.00   0.01     0.00   0.02  -0.08    -0.00   0.00   0.02
  58   7    -0.00   0.00  -0.00     0.01  -0.01   0.06    -0.00   0.00   0.03
  59   6    -0.00  -0.00   0.02     0.00   0.05  -0.24    -0.00   0.00   0.01
  60   6    -0.00  -0.00   0.02     0.00   0.04  -0.21    -0.00   0.00   0.01
  61   7    -0.00  -0.00   0.01     0.00   0.02  -0.10    -0.00   0.00   0.02
  62   1    -0.00  -0.00   0.01     0.00   0.02  -0.10    -0.00   0.00   0.00
  63   1    -0.00  -0.00   0.00    -0.00   0.01  -0.03    -0.00   0.00   0.00
  64   1    -0.00  -0.00   0.00    -0.00   0.01  -0.03     0.00   0.00   0.01
  65   1    -0.00  -0.00   0.01    -0.00   0.02  -0.10     0.00   0.00   0.00
  66   1     0.00  -0.00   0.01    -0.00   0.02  -0.10     0.00   0.00   0.00
  67   1    -0.00  -0.00   0.00     0.00   0.00  -0.02     0.00   0.00   0.01
  68   1    -0.00   0.00  -0.01     0.01  -0.02   0.11     0.00   0.00   0.01
  69   1    -0.00   0.00  -0.01     0.01  -0.03   0.16     0.00  -0.00   0.01
  70   1    -0.00   0.00  -0.01     0.00  -0.02   0.12    -0.00   0.00   0.01
  71   1    -0.00  -0.00   0.00    -0.00   0.01  -0.01    -0.00   0.00   0.01
  72   1    -0.00  -0.00   0.01    -0.00   0.02  -0.10    -0.00   0.00   0.00
  73   6    -0.00  -0.00  -0.05    -0.00  -0.00  -0.00     0.00   0.00   0.02
  74   6    -0.00  -0.00  -0.08    -0.00  -0.00  -0.01     0.00   0.00   0.02
  75   6    -0.00  -0.00  -0.09    -0.00  -0.00  -0.01    -0.00   0.00   0.01
  76   6    -0.00  -0.00  -0.08    -0.00  -0.00  -0.01    -0.00  -0.00  -0.01
  77   6    -0.00  -0.00  -0.02    -0.00   0.00   0.00     0.00  -0.00  -0.02
  78   6    -0.00  -0.00  -0.02    -0.00   0.00   0.00     0.00  -0.00  -0.01
  79   6    -0.00  -0.00  -0.02    -0.00   0.00   0.00     0.00   0.00   0.02
  80   6    -0.00  -0.00  -0.02    -0.00   0.00   0.00    -0.00   0.00   0.04
  81   6    -0.00  -0.00  -0.01    -0.00   0.00   0.01    -0.00   0.00   0.03
  82   6    -0.00  -0.00  -0.01    -0.00   0.00   0.02    -0.00   0.00   0.01
  83   6    -0.00  -0.00  -0.01    -0.00   0.00   0.02    -0.00  -0.00  -0.01
  84   6    -0.00  -0.00  -0.01    -0.00   0.00   0.02    -0.00  -0.00  -0.02
  85   6    -0.00   0.00  -0.01    -0.00  -0.01   0.08     0.00  -0.00  -0.01
  86   6    -0.00   0.00  -0.01    -0.00  -0.01   0.08     0.00   0.00   0.01
  87   6    -0.00   0.00  -0.01    -0.00  -0.01   0.07     0.00   0.00   0.02
  88   6    -0.00   0.00  -0.00    -0.00  -0.00   0.05     0.00   0.00   0.02
  89  27    -0.00   0.00  -0.03    -0.00   0.00  -0.00    -0.00  -0.02  -0.19
  90   6    -0.00   0.00  -0.02    -0.00   0.00  -0.00    -0.00  -0.01  -0.11
  91   6    -0.00   0.00  -0.05    -0.00   0.00  -0.00    -0.00  -0.01  -0.07
  92   6    -0.00  -0.00  -0.05    -0.00   0.00  -0.00    -0.00  -0.01  -0.06
  93   6    -0.00  -0.00  -0.06    -0.00  -0.00  -0.00    -0.00  -0.00  -0.03
  94   6     0.00  -0.00  -0.05    -0.00  -0.00  -0.00     0.00  -0.01  -0.05
  95   6     0.00   0.00  -0.05    -0.00  -0.00  -0.01     0.00  -0.01  -0.06
  96   6     0.00   0.00  -0.02    -0.00  -0.00  -0.00     0.00  -0.01  -0.10
  97   6     0.00   0.00  -0.01    -0.00  -0.00  -0.00     0.00  -0.01  -0.11
  98   7     0.00   0.00  -0.03    -0.00  -0.00  -0.00     0.00  -0.01  -0.09
  99   6     0.00   0.00   0.01    -0.00   0.00  -0.00     0.00  -0.02  -0.13
 100   6     0.00   0.00   0.01    -0.00   0.00  -0.00     0.00  -0.01  -0.12
 101   6     0.00   0.00   0.01    -0.00   0.00  -0.00     0.00  -0.01  -0.11
 102   6     0.00   0.00  -0.00    -0.00   0.00   0.00     0.00  -0.01  -0.08
 103   6     0.00   0.00  -0.01    -0.00   0.00   0.00     0.00  -0.01  -0.06
 104   7     0.00   0.00  -0.00    -0.00   0.00  -0.00     0.00  -0.01  -0.10
 105   6    -0.00  -0.00  -0.02    -0.00   0.00   0.00     0.00  -0.01  -0.05
 106   6    -0.00   0.00  -0.01    -0.00   0.00   0.00    -0.00  -0.01  -0.07
 107   6    -0.00   0.00   0.00    -0.00   0.00   0.00    -0.00  -0.01  -0.08
 108   6    -0.00   0.00   0.02    -0.00   0.00   0.00    -0.00  -0.01  -0.12
 109   6    -0.00   0.00   0.01    -0.00   0.00   0.00    -0.00  -0.01  -0.12
 110   7    -0.00   0.00  -0.00    -0.00   0.00   0.00    -0.00  -0.01  -0.10
 111   6    -0.00   0.01   0.02    -0.00   0.00   0.00    -0.00  -0.02  -0.14
 112   6    -0.00   0.00  -0.00    -0.00   0.00   0.00    -0.00  -0.01  -0.12
 113   7    -0.00   0.00  -0.02    -0.00   0.00  -0.00    -0.00  -0.01  -0.09
 114   1    -0.00   0.00  -0.00    -0.00   0.00   0.00    -0.00  -0.00  -0.04
 115   1    -0.00  -0.00  -0.02    -0.00   0.00  -0.00    -0.00  -0.00  -0.01
 116   1     0.00  -0.00  -0.02    -0.00  -0.00  -0.00     0.00  -0.00  -0.01
 117   1     0.00   0.00  -0.00    -0.00  -0.00  -0.00     0.00  -0.00  -0.03
 118   1     0.00   0.00   0.01    -0.00  -0.00  -0.00     0.00  -0.01  -0.04
 119   1     0.00   0.00   0.01    -0.00   0.00  -0.00     0.00  -0.00  -0.04
 120   1     0.00   0.00  -0.00    -0.00   0.00   0.00     0.00  -0.00  -0.02
 121   1    -0.00   0.00   0.00    -0.00   0.00   0.00    -0.00  -0.00  -0.02
 122   1    -0.00   0.00   0.01    -0.00   0.00   0.00    -0.00  -0.00  -0.04
 123   1    -0.00   0.00   0.01    -0.00   0.00   0.00    -0.00  -0.01  -0.05
 124  27    -0.00  -0.00  -0.00    -0.00   0.00   0.00     0.00   0.03   0.26
 125   6    -0.00   0.00   0.00    -0.00  -0.00  -0.00    -0.00   0.02   0.14
 126   6    -0.00  -0.00  -0.01    -0.00   0.00  -0.00    -0.00   0.01   0.10
 127   6    -0.00  -0.00  -0.01    -0.00   0.00   0.00    -0.00   0.01   0.09
 128   6    -0.00  -0.00  -0.01    -0.00   0.00   0.00    -0.00   0.01   0.06
 129   6    -0.00  -0.00  -0.01    -0.00   0.00  -0.00     0.00   0.01   0.09
 130   6    -0.00  -0.00  -0.01    -0.00  -0.00  -0.00     0.00   0.01   0.10
 131   6    -0.00  -0.00  -0.00    -0.00  -0.00  -0.01     0.00   0.02   0.15
 132   6    -0.00   0.00   0.00    -0.00  -0.00  -0.01     0.00   0.02   0.15
 133   7    -0.00  -0.00  -0.00    -0.00   0.00  -0.00     0.00   0.01   0.13
 134   6    -0.00   0.00   0.01    -0.00  -0.00  -0.01     0.00   0.02   0.18
 135   6    -0.00   0.00   0.00    -0.00   0.00  -0.00     0.00   0.02   0.15
 136   6    -0.00   0.00   0.00    -0.00   0.00  -0.00     0.00   0.02   0.14
 137   6    -0.00  -0.00   0.00    -0.00   0.00   0.01     0.00   0.01   0.10
 138   6    -0.00  -0.00  -0.00    -0.00   0.00   0.01     0.00   0.01   0.09
 139   7    -0.00  -0.00   0.00    -0.00   0.00   0.00     0.00   0.01   0.13
 140   6    -0.00  -0.00  -0.00    -0.00   0.00   0.01    -0.00   0.01   0.06
 141   6    -0.00  -0.00  -0.00    -0.00   0.00   0.01    -0.00   0.01   0.08
 142   6    -0.00   0.00   0.00    -0.00   0.00   0.01    -0.00   0.01   0.10
 143   6    -0.00   0.00   0.01    -0.00   0.00   0.00    -0.00   0.02   0.14
 144   6    -0.00   0.00   0.01    -0.00   0.00  -0.00     0.00   0.02   0.15
 145   7    -0.00   0.00   0.00    -0.00   0.00   0.00    -0.00   0.01   0.12
 146   6    -0.00   0.00   0.01    -0.00   0.00  -0.00     0.00   0.02   0.17
 147   6    -0.00   0.00   0.00    -0.00   0.00  -0.00    -0.00   0.02   0.15
 148   7    -0.00  -0.00  -0.00    -0.00   0.00  -0.00    -0.00   0.01   0.13
 149   1    -0.00   0.00   0.00    -0.00  -0.00  -0.00    -0.00   0.01   0.05
 150   1    -0.00  -0.00  -0.00    -0.00   0.00   0.00    -0.00   0.00   0.02
 151   1    -0.00  -0.00  -0.00    -0.00  -0.00  -0.00     0.00   0.00   0.02
 152   1    -0.00   0.00   0.00    -0.00  -0.00  -0.00     0.00   0.01   0.05
 153   1    -0.00   0.00   0.00    -0.00  -0.00  -0.00     0.00   0.01   0.06
 154   1    -0.00   0.00   0.00    -0.00   0.00  -0.00     0.00   0.01   0.05
 155   1    -0.00  -0.00  -0.00    -0.00   0.00   0.00     0.00   0.00   0.02
 156   1    -0.00  -0.00   0.00    -0.00   0.00   0.00    -0.00   0.00   0.02
 157   1    -0.00   0.00   0.00    -0.00   0.00   0.00    -0.00   0.01   0.05
 158   1    -0.00   0.00   0.00    -0.00  -0.00  -0.00     0.00   0.01   0.06
 159  27    -0.00   0.00  -0.00    -0.00  -0.01   0.03    -0.00  -0.02  -0.18
 160   6    -0.00   0.00   0.00    -0.01  -0.01  -0.01     0.00  -0.01  -0.10
 161   6    -0.00   0.00  -0.00    -0.00  -0.00  -0.00     0.00  -0.01  -0.07
 162   6    -0.00   0.00  -0.00    -0.00  -0.00   0.01     0.00  -0.01  -0.06
 163   6    -0.00  -0.00  -0.00    -0.00  -0.00   0.01    -0.00  -0.01  -0.05
 164   6    -0.00  -0.00  -0.00     0.00  -0.00   0.01    -0.00  -0.01  -0.06
 165   6    -0.00  -0.00  -0.00     0.00  -0.00  -0.00    -0.00  -0.01  -0.07
 166   6    -0.00   0.00  -0.00     0.00  -0.01  -0.02    -0.00  -0.01  -0.11
 167   6    -0.00   0.00   0.00     0.00  -0.01  -0.01    -0.00  -0.01  -0.11
 168   7    -0.00   0.00  -0.00     0.00  -0.01   0.00    -0.00  -0.01  -0.09
 169   6    -0.00   0.00   0.00     0.00  -0.01  -0.01    -0.00  -0.01  -0.13
 170   6    -0.00   0.00  -0.00     0.00  -0.01   0.00    -0.00  -0.01  -0.11
 171   6    -0.00   0.00  -0.00     0.00  -0.01   0.02    -0.00  -0.01  -0.10
 172   6    -0.00   0.00  -0.00     0.00  -0.01   0.04    -0.00  -0.01  -0.06
 173   6    -0.00   0.00  -0.00     0.00  -0.01   0.04    -0.00  -0.01  -0.05
 174   7    -0.00   0.00  -0.00     0.00  -0.01   0.02    -0.00  -0.01  -0.09
 175   6    -0.00   0.00  -0.01    -0.00  -0.01   0.06     0.00  -0.00  -0.03
 176   6    -0.00   0.00  -0.00    -0.00  -0.01   0.05     0.00  -0.01  -0.05
 177   6    -0.00   0.00  -0.00    -0.00  -0.01   0.05     0.00  -0.01  -0.06
 178   6    -0.00   0.00   0.00    -0.01  -0.01   0.02     0.00  -0.01  -0.09
 179   6    -0.00   0.00   0.00    -0.00  -0.01   0.01     0.00  -0.01  -0.10
 180   7    -0.00   0.00  -0.00    -0.00  -0.01   0.03     0.00  -0.01  -0.08
 181   6    -0.00   0.00   0.00    -0.01  -0.01  -0.01     0.00  -0.01  -0.12
 182   6    -0.00   0.00   0.00    -0.00  -0.01  -0.01     0.00  -0.01  -0.11
 183   7    -0.00   0.00  -0.00    -0.00  -0.01   0.00     0.00  -0.01  -0.09
 184   1    -0.00   0.00   0.00    -0.00  -0.00  -0.01     0.00  -0.00  -0.04
 185   1    -0.00  -0.00  -0.00    -0.00  -0.00   0.00     0.00  -0.00  -0.02
 186   1    -0.00  -0.00  -0.00     0.00  -0.00   0.00    -0.00  -0.00  -0.02
 187   1    -0.00   0.00   0.00     0.00  -0.00  -0.01    -0.00  -0.00  -0.04
 188   1    -0.00   0.00   0.00     0.00  -0.00  -0.01    -0.00  -0.00  -0.04
 189   1    -0.00   0.00   0.00     0.00  -0.00   0.00    -0.00  -0.00  -0.03
 190   1    -0.00   0.00  -0.00     0.00  -0.00   0.02    -0.00  -0.00  -0.01
 191   1    -0.00   0.00  -0.00    -0.00  -0.00   0.02     0.00  -0.00  -0.01
 192   1    -0.00   0.00   0.00    -0.00  -0.00   0.00     0.00  -0.00  -0.03
 193   1    -0.00   0.00   0.00    -0.00  -0.00  -0.01     0.00  -0.00  -0.04
                      4                      5                      6
                        a                      a                      a 
 Frequencies --    -5.3362                -3.8411                 0.2841
 Red. masses --    18.3007                17.6151                17.8020
 Frc consts  --     0.0000                 0.0000                 0.0000
 IR Inten    --    14.4787                 2.5626                 5.1912
 Raman Activ --     0.0000                 0.0000                 0.0000
 Depolar     --     0.0000                 0.0000                 0.0000
 Atom AN      X      Y      Z        X      Y      Z        X      Y      Z
   1  27    -0.00   0.01   0.12    -0.00   0.02   0.17     0.00  -0.19   0.03
   2   6    -0.00   0.01   0.04    -0.00   0.01   0.06     0.04  -0.06   0.05
   3   6    -0.00   0.01   0.05    -0.00   0.01   0.07     0.03  -0.05   0.04
   4   6    -0.00   0.01   0.05    -0.00   0.01   0.07     0.01  -0.06   0.02
   5   6     0.00   0.01   0.05    -0.00   0.01   0.08     0.00  -0.05   0.01
   6   6     0.00   0.01   0.05     0.00   0.01   0.08    -0.01  -0.06  -0.01
   7   6     0.00   0.01   0.04     0.00   0.01   0.07    -0.03  -0.05  -0.02
   8   6     0.00   0.01   0.04     0.00   0.01   0.07    -0.04  -0.06  -0.03
   9   6     0.00   0.01   0.04     0.00   0.01   0.07    -0.03  -0.07  -0.02
  10   7     0.00   0.01   0.05     0.00   0.01   0.08    -0.02  -0.08  -0.01
  11   6     0.00   0.01   0.04     0.00   0.01   0.07    -0.03  -0.09  -0.03
  12   6     0.00   0.01   0.05     0.00   0.01   0.08    -0.03  -0.10  -0.02
  13   6     0.00   0.01   0.05     0.00   0.01   0.08    -0.03  -0.11  -0.03
  14   6    -0.00   0.01   0.07    -0.00   0.01   0.09    -0.02  -0.12  -0.01
  15   6    -0.00   0.01   0.07    -0.00   0.01   0.09    -0.01  -0.12   0.00
  16   7     0.00   0.01   0.06    -0.00   0.01   0.09    -0.01  -0.11  -0.00
  17   6    -0.00   0.01   0.08    -0.00   0.01   0.09     0.00  -0.12   0.02
  18   6    -0.00   0.01   0.07    -0.00   0.01   0.09     0.01  -0.12   0.03
  19   6    -0.00   0.01   0.07    -0.00   0.01   0.08     0.03  -0.12   0.05
  20   6    -0.00   0.01   0.06    -0.00   0.01   0.07     0.04  -0.11   0.06
  21   6    -0.00   0.01   0.05    -0.00   0.01   0.07     0.03  -0.10   0.05
  22   7    -0.00   0.01   0.06    -0.00   0.01   0.08     0.02  -0.11   0.03
  23   6    -0.00   0.01   0.05    -0.00   0.01   0.06     0.04  -0.09   0.05
  24   6    -0.00   0.01   0.04    -0.00   0.01   0.06     0.03  -0.07   0.04
  25   7    -0.00   0.01   0.05    -0.00   0.01   0.08     0.02  -0.08   0.03
  26   1    -0.00   0.00   0.01    -0.00   0.00   0.02     0.01  -0.02   0.02
  27   1    -0.00   0.00   0.01    -0.00   0.00   0.02     0.01  -0.01   0.01
  28   1     0.00   0.00   0.01     0.00   0.00   0.02    -0.01  -0.01  -0.01
  29   1     0.00   0.00   0.01     0.00   0.00   0.02    -0.01  -0.02  -0.01
  30   1     0.00   0.00   0.01     0.00   0.00   0.02    -0.01  -0.02  -0.01
  31   1     0.00   0.00   0.01     0.00   0.00   0.02    -0.01  -0.03  -0.01
  32   1    -0.00   0.00   0.02    -0.00   0.00   0.03    -0.01  -0.04  -0.00
  33   1    -0.00   0.00   0.02    -0.00   0.00   0.03     0.00  -0.04   0.01
  34   1    -0.00   0.00   0.02    -0.00   0.00   0.03     0.01  -0.04   0.01
  35   1    -0.00   0.00   0.02    -0.00   0.00   0.02     0.01  -0.03   0.02
  36   1    -0.00   0.00   0.01    -0.00   0.00   0.02     0.01  -0.02   0.02
  37  27    -0.00  -0.01  -0.11     0.00   0.02   0.18     0.00  -0.19   0.03
  38   6     0.00  -0.01  -0.03    -0.00   0.01   0.07     0.04  -0.07   0.05
  39   6     0.00  -0.01  -0.04    -0.00   0.01   0.07     0.03  -0.06   0.04
  40   6     0.00  -0.01  -0.04    -0.00   0.01   0.08     0.01  -0.06   0.02
  41   6    -0.00  -0.00  -0.04     0.00   0.01   0.08    -0.00  -0.05   0.01
  42   6    -0.00  -0.00  -0.04     0.00   0.01   0.08    -0.01  -0.06  -0.01
  43   6    -0.00  -0.01  -0.04     0.00   0.01   0.08    -0.03  -0.05  -0.02
  44   6    -0.00  -0.01  -0.04     0.00   0.01   0.08    -0.04  -0.06  -0.03
  45   6    -0.00  -0.01  -0.04     0.00   0.01   0.08    -0.03  -0.07  -0.02
  46   7    -0.00  -0.01  -0.05     0.00   0.01   0.09    -0.02  -0.08  -0.01
  47   6    -0.00  -0.01  -0.04     0.00   0.01   0.08    -0.04  -0.08  -0.03
  48   6    -0.00  -0.01  -0.05     0.00   0.01   0.09    -0.03  -0.10  -0.02
  49   6    -0.00  -0.01  -0.05     0.00   0.01   0.09    -0.04  -0.11  -0.02
  50   6    -0.00  -0.00  -0.07     0.00   0.01   0.10    -0.03  -0.12  -0.01
  51   6    -0.00  -0.00  -0.06     0.00   0.01   0.10    -0.01  -0.11   0.00
  52   7    -0.00  -0.01  -0.06     0.00   0.01   0.10    -0.02  -0.11  -0.00
  53   6    -0.00  -0.00  -0.07     0.00   0.01   0.10     0.00  -0.12   0.01
  54   6     0.00  -0.00  -0.06     0.00   0.01   0.09     0.01  -0.12   0.03
  55   6     0.00  -0.00  -0.07    -0.00   0.01   0.09     0.03  -0.13   0.04
  56   6     0.00  -0.01  -0.05    -0.00   0.01   0.08     0.04  -0.12   0.05
  57   6     0.00  -0.01  -0.05    -0.00   0.01   0.08     0.03  -0.11   0.04
  58   7     0.00  -0.01  -0.06    -0.00   0.01   0.09     0.02  -0.11   0.03
  59   6     0.00  -0.01  -0.04    -0.00   0.01   0.07     0.04  -0.09   0.05
  60   6     0.00  -0.01  -0.04    -0.00   0.01   0.07     0.03  -0.08   0.04
  61   7     0.00  -0.01  -0.05    -0.00   0.01   0.08     0.02  -0.08   0.03
  62   1     0.00  -0.00  -0.01    -0.00   0.00   0.02     0.01  -0.02   0.02
  63   1     0.00  -0.00  -0.01    -0.00   0.00   0.02     0.01  -0.01   0.01
  64   1    -0.00  -0.00  -0.01     0.00   0.00   0.02    -0.01  -0.01  -0.01
  65   1    -0.00  -0.00  -0.01     0.00   0.00   0.02    -0.01  -0.02  -0.01
  66   1    -0.00  -0.00  -0.01     0.00   0.00   0.02    -0.01  -0.02  -0.01
  67   1    -0.00  -0.00  -0.01     0.00   0.00   0.03    -0.01  -0.03  -0.01
  68   1    -0.00  -0.00  -0.02     0.00   0.00   0.03    -0.01  -0.04  -0.00
  69   1    -0.00  -0.00  -0.02     0.00   0.00   0.03     0.00  -0.04   0.00
  70   1     0.00  -0.00  -0.02    -0.00   0.00   0.03     0.01  -0.04   0.01
  71   1     0.00  -0.00  -0.01    -0.00   0.00   0.02     0.01  -0.04   0.02
  72   1     0.00  -0.00  -0.01    -0.00   0.00   0.02     0.01  -0.03   0.02
  73   6     0.00   0.01   0.05    -0.00   0.01   0.07     0.00  -0.04   0.00
  74   6     0.00   0.00   0.04    -0.00   0.01   0.07    -0.00  -0.02   0.00
  75   6     0.00   0.00   0.02    -0.00   0.01   0.05    -0.00  -0.01   0.00
  76   6     0.00  -0.00  -0.00    -0.00   0.00   0.04    -0.00  -0.00  -0.00
  77   6     0.00  -0.00  -0.01    -0.00   0.01   0.05    -0.00   0.07  -0.01
  78   6     0.00   0.00   0.01    -0.00   0.01   0.06    -0.00   0.08  -0.01
  79   6     0.00   0.00   0.02    -0.00   0.00   0.05    -0.00   0.08  -0.01
  80   6     0.00   0.00   0.02     0.00   0.00   0.03    -0.00   0.09  -0.01
  81   6     0.00  -0.00  -0.01     0.00   0.00   0.02    -0.00   0.09  -0.01
  82   6     0.00   0.00  -0.01     0.00   0.00   0.04    -0.00   0.08  -0.01
  83   6     0.00   0.00   0.01     0.00   0.00   0.05    -0.00   0.08  -0.01
  84   6     0.00   0.00   0.02     0.00   0.00   0.04    -0.00   0.07  -0.01
  85   6    -0.00   0.00   0.01     0.00   0.01   0.04    -0.00   0.00   0.00
  86   6    -0.00  -0.00  -0.02     0.00   0.01   0.05    -0.00  -0.01   0.00
  87   6    -0.00  -0.00  -0.03     0.00   0.01   0.07    -0.00  -0.02   0.00
  88   6    -0.00  -0.00  -0.04     0.00   0.01   0.07    -0.00  -0.04   0.01
  89  27     0.00  -0.03  -0.23    -0.00  -0.01  -0.08    -0.00   0.08  -0.01
  90   6    -0.00  -0.02  -0.14    -0.00  -0.01  -0.08     0.03   0.02   0.02
  91   6    -0.00  -0.01  -0.08    -0.00  -0.00  -0.03     0.02   0.01   0.02
  92   6    -0.00  -0.01  -0.07    -0.00  -0.00  -0.01     0.01   0.01   0.01
  93   6     0.00  -0.00  -0.03    -0.00   0.00   0.01    -0.00   0.01  -0.00
  94   6     0.00  -0.01  -0.06    -0.00  -0.00  -0.00    -0.01   0.01  -0.01
  95   6     0.00  -0.01  -0.07     0.00  -0.00  -0.01    -0.02   0.01  -0.02
  96   6     0.00  -0.02  -0.13     0.00  -0.01  -0.06    -0.03   0.01  -0.03
  97   6     0.00  -0.02  -0.14     0.00  -0.01  -0.06    -0.02   0.02  -0.02
  98   7     0.00  -0.01  -0.11    -0.00  -0.00  -0.04    -0.01   0.02  -0.02
  99   6     0.00  -0.02  -0.17     0.00  -0.01  -0.08    -0.03   0.03  -0.03
 100   6     0.00  -0.02  -0.15     0.00  -0.01  -0.06    -0.02   0.04  -0.03
 101   6     0.00  -0.02  -0.14     0.00  -0.01  -0.05    -0.03   0.05  -0.03
 102   6     0.00  -0.01  -0.08     0.00  -0.00  -0.00    -0.02   0.06  -0.02
 103   6     0.00  -0.01  -0.07     0.00   0.00   0.01    -0.01   0.05  -0.02
 104   7     0.00  -0.01  -0.11     0.00  -0.00  -0.03    -0.01   0.05  -0.02
 105   6     0.00  -0.01  -0.04    -0.00   0.00   0.03    -0.00   0.06  -0.01
 106   6    -0.00  -0.01  -0.07    -0.00  -0.00  -0.00     0.01   0.06   0.00
 107   6    -0.00  -0.01  -0.09    -0.00  -0.00  -0.02     0.02   0.06   0.01
 108   6    -0.00  -0.02  -0.15    -0.00  -0.01  -0.07     0.03   0.06   0.02
 109   6    -0.00  -0.02  -0.16    -0.00  -0.01  -0.08     0.02   0.05   0.01
 110   7    -0.00  -0.01  -0.12    -0.00  -0.00  -0.04     0.01   0.05   0.00
 111   6    -0.00  -0.02  -0.19    -0.00  -0.01  -0.11     0.03   0.04   0.02
 112   6    -0.00  -0.02  -0.15    -0.00  -0.01  -0.08     0.02   0.03   0.02
 113   7    -0.00  -0.01  -0.12    -0.00  -0.01  -0.05     0.01   0.03   0.01
 114   1    -0.00  -0.01  -0.05    -0.00  -0.00  -0.03     0.01   0.01   0.01
 115   1    -0.00  -0.00  -0.02    -0.00  -0.00  -0.00     0.01   0.00   0.01
 116   1     0.00  -0.00  -0.01     0.00   0.00   0.00    -0.01  -0.00  -0.01
 117   1     0.00  -0.01  -0.05     0.00  -0.00  -0.02    -0.01   0.00  -0.01
 118   1     0.00  -0.01  -0.06     0.00  -0.00  -0.03    -0.01   0.01  -0.01
 119   1     0.00  -0.01  -0.05     0.00  -0.00  -0.02    -0.01   0.01  -0.01
 120   1     0.00  -0.00  -0.02     0.00   0.00   0.01    -0.01   0.02  -0.01
 121   1    -0.00  -0.00  -0.02    -0.00   0.00   0.00     0.01   0.02   0.00
 122   1    -0.00  -0.01  -0.05    -0.00  -0.00  -0.03     0.01   0.02   0.01
 123   1    -0.00  -0.01  -0.06    -0.00  -0.00  -0.04     0.01   0.01   0.01
 124  27     0.00  -0.00  -0.02    -0.00  -0.03  -0.21    -0.00   0.19  -0.02
 125   6     0.00  -0.00   0.00    -0.00  -0.02  -0.13     0.00   0.09  -0.01
 126   6     0.00   0.00   0.01     0.00  -0.01  -0.06     0.00   0.09  -0.01
 127   6     0.00   0.00   0.01     0.00  -0.01  -0.04    -0.00   0.09  -0.01
 128   6     0.00   0.00   0.02    -0.00  -0.00  -0.01    -0.00   0.09  -0.01
 129   6    -0.00   0.00   0.01    -0.00  -0.01  -0.05     0.00   0.09  -0.01
 130   6    -0.00   0.00   0.01    -0.00  -0.01  -0.07    -0.00   0.09  -0.01
 131   6    -0.00  -0.00  -0.00    -0.00  -0.02  -0.14    -0.00   0.09  -0.01
 132   6    -0.00  -0.00  -0.01    -0.00  -0.02  -0.15    -0.00   0.09  -0.01
 133   7    -0.00  -0.00  -0.00    -0.00  -0.01  -0.10    -0.00   0.09  -0.01
 134   6    -0.00  -0.00  -0.02    -0.00  -0.02  -0.19    -0.00   0.09  -0.01
 135   6    -0.00  -0.00  -0.02    -0.00  -0.02  -0.16    -0.00   0.09  -0.01
 136   6    -0.00  -0.00  -0.03    -0.00  -0.02  -0.15    -0.00   0.09  -0.01
 137   6    -0.00  -0.00  -0.02    -0.00  -0.01  -0.07    -0.00   0.09  -0.01
 138   6    -0.00  -0.00  -0.02    -0.00  -0.01  -0.05    -0.00   0.09  -0.01
 139   7    -0.00  -0.00  -0.02    -0.00  -0.01  -0.11    -0.00   0.09  -0.01
 140   6     0.00  -0.00  -0.01    -0.00  -0.00  -0.01    -0.00   0.09  -0.01
 141   6     0.00  -0.00  -0.01     0.00  -0.01  -0.05     0.00   0.09  -0.01
 142   6     0.00  -0.00  -0.02     0.00  -0.01  -0.06     0.00   0.09  -0.01
 143   6     0.00  -0.00  -0.02    -0.00  -0.02  -0.13     0.00   0.09  -0.01
 144   6     0.00  -0.00  -0.02    -0.00  -0.02  -0.15     0.00   0.09  -0.01
 145   7     0.00  -0.00  -0.02    -0.00  -0.01  -0.10     0.00   0.09  -0.01
 146   6     0.00  -0.00  -0.02    -0.00  -0.02  -0.18     0.00   0.09  -0.01
 147   6     0.00  -0.00  -0.01    -0.00  -0.02  -0.14     0.00   0.09  -0.01
 148   7     0.00  -0.00  -0.00    -0.00  -0.01  -0.10    -0.00   0.09  -0.01
 149   1     0.00  -0.00  -0.00    -0.00  -0.01  -0.05     0.00   0.03  -0.00
 150   1     0.00   0.00   0.01     0.00  -0.00  -0.01     0.00   0.03  -0.00
 151   1    -0.00   0.00   0.01    -0.00  -0.00  -0.01    -0.00   0.02  -0.00
 152   1    -0.00  -0.00  -0.00    -0.00  -0.01  -0.05    -0.00   0.02  -0.00
 153   1    -0.00  -0.00  -0.01    -0.00  -0.01  -0.07    -0.00   0.03  -0.00
 154   1    -0.00  -0.00  -0.01    -0.00  -0.01  -0.05    -0.00   0.03  -0.00
 155   1    -0.00  -0.00  -0.01    -0.00  -0.00  -0.01    -0.00   0.03  -0.00
 156   1     0.00  -0.00  -0.01     0.00  -0.00  -0.01     0.00   0.03  -0.00
 157   1     0.00  -0.00  -0.01    -0.00  -0.01  -0.05     0.00   0.03  -0.00
 158   1     0.00  -0.00  -0.01    -0.00  -0.01  -0.06     0.00   0.03  -0.00
 159  27     0.00   0.03   0.24     0.00  -0.01  -0.10    -0.00   0.08  -0.01
 160   6    -0.00   0.02   0.14     0.00  -0.01  -0.07    -0.03   0.05  -0.03
 161   6    -0.00   0.01   0.09     0.00  -0.00  -0.02    -0.02   0.06  -0.02
 162   6    -0.00   0.01   0.08     0.00  -0.00  -0.01    -0.01   0.06  -0.02
 163   6     0.00   0.01   0.05     0.00   0.00   0.02    -0.00   0.06  -0.01
 164   6     0.00   0.01   0.08    -0.00  -0.00  -0.01     0.01   0.06   0.00
 165   6     0.00   0.01   0.09    -0.00  -0.00  -0.02     0.02   0.06   0.01
 166   6     0.00   0.02   0.14    -0.00  -0.01  -0.08     0.03   0.06   0.02
 167   6     0.00   0.02   0.15    -0.00  -0.01  -0.09     0.02   0.05   0.01
 168   7     0.00   0.01   0.12    -0.00  -0.00  -0.05     0.01   0.05   0.00
 169   6     0.00   0.02   0.18    -0.00  -0.01  -0.12     0.03   0.04   0.02
 170   6     0.00   0.02   0.15    -0.00  -0.01  -0.09     0.02   0.03   0.02
 171   6     0.00   0.01   0.13    -0.00  -0.01  -0.09     0.03   0.02   0.02
 172   6     0.00   0.01   0.08    -0.00  -0.00  -0.04     0.02   0.01   0.02
 173   6     0.00   0.01   0.07    -0.00  -0.00  -0.02     0.01   0.02   0.01
 174   7     0.00   0.01   0.11    -0.00  -0.00  -0.06     0.01   0.03   0.01
 175   6    -0.00   0.00   0.04     0.00   0.00   0.01    -0.00   0.01  -0.00
 176   6    -0.00   0.01   0.06     0.00   0.00  -0.01    -0.01   0.01  -0.01
 177   6    -0.00   0.01   0.08     0.00  -0.00  -0.03    -0.02   0.01  -0.02
 178   6    -0.00   0.01   0.13     0.00  -0.01  -0.07    -0.03   0.02  -0.03
 179   6    -0.00   0.01   0.14     0.00  -0.01  -0.08    -0.02   0.03  -0.03
 180   7    -0.00   0.01   0.11     0.00  -0.00  -0.05    -0.01   0.03  -0.02
 181   6    -0.00   0.02   0.17     0.00  -0.01  -0.11    -0.03   0.03  -0.03
 182   6    -0.00   0.02   0.15     0.00  -0.01  -0.08    -0.02   0.04  -0.03
 183   7    -0.00   0.01   0.12     0.00  -0.00  -0.05    -0.01   0.05  -0.02
 184   1    -0.00   0.01   0.05     0.00  -0.00  -0.03    -0.01   0.02  -0.01
 185   1    -0.00   0.00   0.02     0.00  -0.00   0.00    -0.01   0.02  -0.01
 186   1     0.00   0.00   0.02    -0.00  -0.00  -0.00     0.01   0.02   0.00
 187   1     0.00   0.01   0.05    -0.00  -0.00  -0.03     0.01   0.02   0.01
 188   1     0.00   0.01   0.06    -0.00  -0.00  -0.04     0.01   0.01   0.01
 189   1     0.00   0.00   0.05    -0.00  -0.00  -0.03     0.01   0.01   0.01
 190   1     0.00   0.00   0.02    -0.00   0.00  -0.00     0.01   0.00   0.01
 191   1    -0.00   0.00   0.01     0.00   0.00  -0.00    -0.01   0.00  -0.01
 192   1    -0.00   0.00   0.04     0.00  -0.00  -0.03    -0.01   0.00  -0.01
 193   1    -0.00   0.01   0.06     0.00  -0.00  -0.04    -0.01   0.01  -0.01
                      7                      8                      9
                        a                      a                      a 
 Frequencies --     1.3702                 2.9920                 3.2889
 Red. masses --    11.6605                11.7173                16.2179
 Frc consts  --     0.0000                 0.0000                 0.0000
 IR Inten    --    44.5211               248.7749                 0.3982
 Raman Activ --     0.0000                 0.0000                 0.0000
 Depolar     --     0.0000                 0.0000                 0.0000
 Atom AN      X      Y      Z        X      Y      Z        X      Y      Z
   1  27     0.00  -0.05  -0.01     0.00  -0.04   0.01    -0.00   0.10  -0.01
   2   6     0.01  -0.02  -0.18     0.02  -0.00   0.12    -0.06   0.00   0.03
   3   6     0.01  -0.01  -0.12     0.01   0.00   0.09    -0.04  -0.01   0.02
   4   6     0.00  -0.02  -0.06     0.01  -0.00   0.04    -0.02  -0.00   0.01
   5   6    -0.00  -0.01   0.00     0.00   0.00  -0.00    -0.00  -0.01  -0.00
   6   6    -0.00  -0.02   0.06    -0.01  -0.00  -0.04     0.02  -0.00  -0.01
   7   6    -0.01  -0.02   0.12    -0.01   0.00  -0.08     0.04  -0.01  -0.02
   8   6    -0.01  -0.02   0.17    -0.02  -0.00  -0.12     0.06   0.00  -0.03
   9   6    -0.01  -0.02   0.13    -0.02  -0.01  -0.09     0.05   0.03  -0.03
  10   7    -0.00  -0.02   0.07    -0.01  -0.01  -0.05     0.03   0.02  -0.02
  11   6    -0.01  -0.03   0.17    -0.02  -0.01  -0.12     0.06   0.05  -0.04
  12   6    -0.01  -0.03   0.13    -0.01  -0.02  -0.09     0.05   0.07  -0.04
  13   6    -0.01  -0.03   0.17    -0.02  -0.03  -0.12     0.06   0.09  -0.05
  14   6    -0.01  -0.03   0.12    -0.01  -0.04  -0.09     0.04   0.11  -0.04
  15   6    -0.00  -0.03   0.06    -0.01  -0.03  -0.04     0.02   0.09  -0.02
  16   7    -0.00  -0.03   0.07    -0.01  -0.03  -0.05     0.02   0.08  -0.02
  17   6    -0.00  -0.03  -0.00     0.00  -0.04   0.00    -0.00   0.10  -0.01
  18   6     0.00  -0.03  -0.07     0.01  -0.03   0.05    -0.02   0.09   0.00
  19   6     0.01  -0.03  -0.13     0.01  -0.04   0.10    -0.04   0.11   0.01
  20   6     0.01  -0.03  -0.18     0.02  -0.03   0.14    -0.06   0.09   0.03
  21   6     0.01  -0.03  -0.15     0.02  -0.02   0.11    -0.05   0.07   0.02
  22   7     0.00  -0.03  -0.08     0.01  -0.03   0.06    -0.03   0.08   0.01
  23   6     0.01  -0.03  -0.18     0.02  -0.01   0.13    -0.06   0.05   0.03
  24   6     0.01  -0.02  -0.14     0.02  -0.01   0.10    -0.05   0.02   0.02
  25   7     0.00  -0.02  -0.08     0.01  -0.01   0.06    -0.03   0.02   0.01
  26   1     0.00  -0.01  -0.07     0.01   0.00   0.05    -0.02   0.00   0.01
  27   1     0.00  -0.00  -0.04     0.00   0.00   0.03    -0.01  -0.01   0.01
  28   1    -0.00  -0.00   0.04    -0.00   0.00  -0.03     0.01  -0.01  -0.01
  29   1    -0.00  -0.01   0.06    -0.01   0.00  -0.04     0.02   0.00  -0.01
  30   1    -0.00  -0.01   0.06    -0.01  -0.00  -0.04     0.02   0.01  -0.01
  31   1    -0.00  -0.01   0.06    -0.01  -0.01  -0.05     0.02   0.03  -0.02
  32   1    -0.00  -0.01   0.04    -0.00  -0.01  -0.03     0.01   0.04  -0.01
  33   1    -0.00  -0.01  -0.00     0.00  -0.01   0.00    -0.00   0.04  -0.00
  34   1     0.00  -0.01  -0.04     0.00  -0.01   0.03    -0.01   0.04   0.00
  35   1     0.00  -0.01  -0.07     0.01  -0.01   0.05    -0.02   0.03   0.01
  36   1     0.00  -0.01  -0.07     0.01  -0.00   0.05    -0.02   0.01   0.01
  37  27     0.00  -0.05  -0.01    -0.00   0.03   0.00     0.00  -0.10   0.01
  38   6     0.01   0.01  -0.15    -0.02   0.03  -0.15     0.06   0.01  -0.04
  39   6     0.01   0.00  -0.11    -0.01   0.01  -0.10     0.04   0.02  -0.03
  40   6     0.00  -0.01  -0.05    -0.01   0.01  -0.05     0.02   0.00  -0.02
  41   6    -0.00  -0.01  -0.00    -0.00  -0.00  -0.00     0.00   0.01  -0.00
  42   6    -0.00  -0.02   0.05     0.01  -0.01   0.05    -0.02  -0.00   0.02
  43   6    -0.01  -0.03   0.10     0.01  -0.02   0.10    -0.04   0.01   0.03
  44   6    -0.01  -0.04   0.14     0.02  -0.02   0.14    -0.06  -0.01   0.05
  45   6    -0.01  -0.03   0.11     0.01  -0.01   0.11    -0.05  -0.03   0.04
  46   7    -0.00  -0.03   0.06     0.01  -0.00   0.06    -0.03  -0.03   0.02
  47   6    -0.01  -0.04   0.13     0.02  -0.01   0.14    -0.06  -0.06   0.05
  48   6    -0.01  -0.04   0.11     0.01  -0.00   0.12    -0.05  -0.08   0.05
  49   6    -0.01  -0.05   0.14     0.02  -0.00   0.15    -0.06  -0.10   0.06
  50   6    -0.00  -0.05   0.10     0.01   0.01   0.11    -0.04  -0.12   0.05
  51   6    -0.00  -0.04   0.05     0.01   0.01   0.06    -0.02  -0.10   0.03
  52   7    -0.00  -0.04   0.06     0.01   0.01   0.07    -0.02  -0.08   0.03
  53   6     0.00  -0.03   0.00    -0.00   0.03   0.01     0.00  -0.11   0.01
  54   6     0.00  -0.02  -0.05    -0.01   0.03  -0.05     0.02  -0.09  -0.01
  55   6     0.01  -0.01  -0.10    -0.01   0.05  -0.10     0.04  -0.10  -0.03
  56   6     0.01   0.00  -0.14    -0.02   0.05  -0.15     0.06  -0.08  -0.04
  57   6     0.01  -0.00  -0.12    -0.01   0.04  -0.12     0.05  -0.06  -0.03
  58   7     0.00  -0.02  -0.06    -0.01   0.03  -0.06     0.03  -0.07  -0.01
  59   6     0.01   0.01  -0.15    -0.02   0.04  -0.15     0.06  -0.04  -0.04
  60   6     0.01   0.00  -0.12    -0.01   0.03  -0.12     0.05  -0.02  -0.03
  61   7     0.00  -0.01  -0.07    -0.01   0.02  -0.06     0.03  -0.02  -0.02
  62   1     0.00   0.01  -0.06    -0.01   0.01  -0.06     0.02   0.00  -0.02
  63   1     0.00   0.00  -0.03    -0.00   0.00  -0.03     0.01   0.01  -0.01
  64   1    -0.00  -0.01   0.03     0.00  -0.01   0.03    -0.01   0.01   0.01
  65   1    -0.00  -0.01   0.05     0.01  -0.01   0.05    -0.02  -0.00   0.02
  66   1    -0.00  -0.01   0.05     0.01  -0.00   0.05    -0.02  -0.02   0.02
  67   1    -0.00  -0.02   0.05     0.01  -0.00   0.06    -0.02  -0.03   0.02
  68   1    -0.00  -0.02   0.03     0.00   0.00   0.04    -0.01  -0.04   0.01
  69   1     0.00  -0.01   0.00    -0.00   0.01   0.00     0.00  -0.04   0.00
  70   1     0.00  -0.00  -0.03    -0.00   0.02  -0.03     0.01  -0.03  -0.01
  71   1     0.00   0.00  -0.05    -0.01   0.02  -0.06     0.02  -0.02  -0.02
  72   1     0.00   0.00  -0.06    -0.01   0.01  -0.06     0.02  -0.01  -0.02
  73   6    -0.00  -0.01   0.00     0.00   0.01  -0.00    -0.00  -0.04   0.00
  74   6    -0.00  -0.01   0.01     0.00   0.02  -0.01    -0.00  -0.05   0.00
  75   6    -0.00  -0.00   0.01    -0.00   0.02  -0.01    -0.00  -0.07   0.00
  76   6    -0.00   0.00   0.01     0.00   0.02  -0.01    -0.00  -0.08   0.01
  77   6    -0.00   0.02   0.00    -0.00   0.03  -0.01    -0.00  -0.09   0.01
  78   6    -0.00   0.02   0.00    -0.00   0.03  -0.01    -0.00  -0.09   0.01
  79   6    -0.00   0.02   0.00    -0.00   0.02  -0.01    -0.00  -0.08   0.01
  80   6    -0.00   0.02   0.00    -0.00   0.02  -0.01     0.00  -0.06   0.00
  81   6    -0.00   0.02  -0.00    -0.00  -0.02  -0.01     0.00   0.06  -0.01
  82   6    -0.00   0.02  -0.00    -0.00  -0.02  -0.01     0.00   0.08  -0.01
  83   6    -0.00   0.02  -0.00    -0.00  -0.03  -0.01     0.00   0.09  -0.01
  84   6    -0.00   0.02   0.00    -0.00  -0.03  -0.01     0.00   0.09  -0.01
  85   6    -0.00  -0.00  -0.00    -0.00  -0.02  -0.00     0.00   0.08  -0.01
  86   6    -0.00  -0.01  -0.00     0.00  -0.02  -0.00     0.00   0.07  -0.01
  87   6    -0.00  -0.01  -0.00    -0.00  -0.02  -0.00     0.00   0.05  -0.00
  88   6    -0.00  -0.01  -0.00    -0.00  -0.01  -0.00     0.00   0.04  -0.00
  89  27    -0.00   0.02   0.00    -0.00   0.06  -0.00    -0.00  -0.19   0.02
  90   6     0.01  -0.01  -0.10     0.00   0.02  -0.06    -0.01  -0.08  -0.01
  91   6     0.01  -0.00  -0.07     0.00   0.02  -0.04    -0.00  -0.08  -0.01
  92   6     0.00   0.00  -0.03     0.00   0.02  -0.02    -0.00  -0.08   0.00
  93   6    -0.00   0.00   0.00    -0.00   0.02  -0.00    -0.00  -0.08   0.01
  94   6    -0.00   0.01   0.04    -0.00   0.03   0.02     0.00  -0.08   0.02
  95   6    -0.01   0.01   0.08    -0.00   0.03   0.04     0.00  -0.08   0.02
  96   6    -0.01   0.02   0.10    -0.00   0.03   0.07     0.01  -0.08   0.03
  97   6    -0.01   0.02   0.08    -0.00   0.03   0.06     0.00  -0.08   0.03
  98   7    -0.00   0.01   0.05    -0.00   0.03   0.03     0.00  -0.09   0.02
  99   6    -0.01   0.02   0.09    -0.00   0.04   0.07     0.01  -0.08   0.04
 100   6    -0.01   0.02   0.07    -0.00   0.04   0.06     0.00  -0.08   0.03
 101   6    -0.01   0.03   0.09    -0.00   0.04   0.08     0.01  -0.09   0.04
 102   6    -0.01   0.03   0.06    -0.00   0.04   0.05     0.00  -0.09   0.03
 103   6    -0.00   0.02   0.03    -0.00   0.03   0.02     0.00  -0.09   0.02
 104   7    -0.00   0.02   0.04    -0.00   0.03   0.03     0.00  -0.09   0.02
 105   6    -0.00   0.02   0.00    -0.00   0.03  -0.01    -0.00  -0.09   0.01
 106   6     0.00   0.01  -0.03     0.00   0.03  -0.04    -0.00  -0.09  -0.00
 107   6     0.01   0.01  -0.06     0.00   0.02  -0.07    -0.00  -0.09  -0.01
 108   6     0.01   0.01  -0.09     0.00   0.02  -0.08    -0.01  -0.09  -0.02
 109   6     0.01   0.00  -0.07     0.00   0.02  -0.06    -0.00  -0.09  -0.01
 110   7     0.00   0.01  -0.04     0.00   0.03  -0.04    -0.00  -0.10  -0.00
 111   6     0.01  -0.00  -0.10     0.00   0.02  -0.07    -0.01  -0.09  -0.01
 112   6     0.01  -0.00  -0.08     0.00   0.02  -0.05    -0.00  -0.09  -0.01
 113   7     0.00   0.00  -0.04     0.00   0.03  -0.03    -0.00  -0.09   0.00
 114   1     0.00  -0.00  -0.04     0.00   0.00  -0.02    -0.00  -0.02  -0.01
 115   1     0.00  -0.00  -0.02     0.00   0.01  -0.01    -0.00  -0.02  -0.00
 116   1    -0.00   0.00   0.02    -0.00   0.01   0.01     0.00  -0.02   0.01
 117   1    -0.00   0.01   0.04    -0.00   0.01   0.03     0.00  -0.02   0.01
 118   1    -0.00   0.01   0.04    -0.00   0.01   0.03     0.00  -0.02   0.01
 119   1    -0.00   0.01   0.03    -0.00   0.01   0.03     0.00  -0.02   0.01
 120   1    -0.00   0.01   0.02    -0.00   0.01   0.02     0.00  -0.03   0.01
 121   1     0.00   0.00  -0.02     0.00   0.01  -0.02    -0.00  -0.03  -0.00
 122   1     0.00   0.00  -0.03     0.00   0.01  -0.03    -0.00  -0.03  -0.01
 123   1     0.00  -0.00  -0.04     0.00   0.01  -0.02    -0.00  -0.03  -0.01
 124  27     0.00   0.05   0.00    -0.00   0.00  -0.01     0.00   0.00  -0.00
 125   6    -0.00   0.03   0.02    -0.01  -0.01  -0.16     0.05  -0.04  -0.05
 126   6    -0.00   0.03   0.01    -0.01   0.00  -0.12     0.03  -0.05  -0.03
 127   6    -0.00   0.02   0.01    -0.01   0.01  -0.07     0.02  -0.04  -0.01
 128   6    -0.00   0.02   0.00    -0.00   0.02  -0.01     0.00  -0.05   0.00
 129   6     0.00   0.02  -0.00     0.01   0.02   0.05    -0.02  -0.03   0.02
 130   6     0.00   0.02  -0.01     0.01   0.03   0.11    -0.03  -0.04   0.04
 131   6     0.00   0.02  -0.01     0.01   0.03   0.16    -0.05  -0.03   0.05
 132   6     0.00   0.02  -0.01     0.01   0.02   0.13    -0.04  -0.01   0.04
 133   7     0.00   0.02  -0.01     0.01   0.02   0.07    -0.02  -0.02   0.02
 134   6     0.00   0.02  -0.02     0.01   0.02   0.16    -0.05   0.01   0.05
 135   6     0.00   0.02  -0.02     0.01   0.01   0.13    -0.04   0.02   0.04
 136   6     0.00   0.02  -0.03     0.01   0.01   0.16    -0.05   0.04   0.04
 137   6     0.00   0.02  -0.02     0.01   0.00   0.11    -0.03   0.05   0.03
 138   6     0.00   0.02  -0.01     0.01  -0.00   0.05    -0.02   0.04   0.01
 139   7     0.00   0.02  -0.01     0.01   0.00   0.07    -0.02   0.02   0.02
 140   6    -0.00   0.02  -0.00    -0.00  -0.01  -0.01     0.00   0.05  -0.01
 141   6    -0.00   0.02   0.01    -0.01  -0.02  -0.06     0.02   0.04  -0.02
 142   6    -0.00   0.02   0.02    -0.01  -0.03  -0.12     0.03   0.04  -0.04
 143   6    -0.00   0.02   0.03    -0.01  -0.03  -0.16     0.05   0.03  -0.05
 144   6    -0.00   0.02   0.02    -0.01  -0.02  -0.13     0.04   0.01  -0.04
 145   7    -0.00   0.03   0.01    -0.01  -0.01  -0.07     0.02   0.02  -0.02
 146   6    -0.00   0.02   0.02    -0.01  -0.02  -0.16     0.05  -0.01  -0.05
 147   6    -0.00   0.02   0.01    -0.01  -0.01  -0.13     0.04  -0.02  -0.04
 148   7    -0.00   0.03   0.01    -0.01  -0.00  -0.08     0.02  -0.02  -0.02
 149   1    -0.00   0.01   0.01    -0.01  -0.00  -0.06     0.02  -0.01  -0.02
 150   1    -0.00   0.01   0.00    -0.00   0.00  -0.04     0.01  -0.02  -0.01
 151   1     0.00   0.01  -0.00     0.00   0.01   0.03    -0.01  -0.02   0.01
 152   1     0.00   0.01  -0.00     0.01   0.01   0.06    -0.02  -0.01   0.02
 153   1     0.00   0.01  -0.01     0.01   0.01   0.06    -0.02   0.00   0.02
 154   1     0.00   0.01  -0.01     0.01   0.00   0.06    -0.02   0.01   0.02
 155   1     0.00   0.01  -0.01     0.00  -0.00   0.03    -0.01   0.02   0.01
 156   1    -0.00   0.01   0.01    -0.00  -0.01  -0.04     0.01   0.02  -0.01
 157   1    -0.00   0.01   0.01    -0.01  -0.01  -0.06     0.02   0.01  -0.02
 158   1    -0.00   0.01   0.01    -0.01  -0.01  -0.06     0.02  -0.00  -0.02
 159  27     0.00   0.01   0.01    -0.00  -0.06   0.01     0.00   0.19  -0.02
 160   6    -0.01   0.02   0.11     0.00  -0.03  -0.04    -0.01   0.09  -0.02
 161   6    -0.01   0.02   0.08     0.00  -0.03  -0.04    -0.00   0.09  -0.02
 162   6    -0.00   0.02   0.04     0.00  -0.03  -0.02    -0.00   0.09  -0.01
 163   6    -0.00   0.01   0.00    -0.00  -0.03  -0.00     0.00   0.09  -0.01
 164   6     0.00   0.01  -0.03    -0.00  -0.02   0.02     0.00   0.09  -0.01
 165   6     0.00   0.00  -0.07    -0.00  -0.02   0.04     0.00   0.09  -0.00
 166   6     0.01  -0.00  -0.10    -0.00  -0.02   0.05     0.01   0.09   0.00
 167   6     0.01  -0.00  -0.08    -0.00  -0.02   0.04     0.00   0.09  -0.00
 168   7     0.00   0.00  -0.04    -0.00  -0.03   0.02     0.00   0.10  -0.01
 169   6     0.01  -0.00  -0.10    -0.00  -0.02   0.05     0.01   0.09   0.00
 170   6     0.01  -0.00  -0.08    -0.00  -0.02   0.03     0.00   0.08  -0.00
 171   6     0.01  -0.01  -0.11    -0.00  -0.02   0.04     0.01   0.08  -0.00
 172   6     0.01  -0.01  -0.08    -0.00  -0.02   0.02     0.00   0.08  -0.00
 173   6     0.00  -0.00  -0.04    -0.00  -0.02   0.01     0.00   0.08  -0.01
 174   7     0.00  -0.00  -0.05    -0.00  -0.03   0.02     0.00   0.09  -0.01
 175   6    -0.00  -0.00  -0.00     0.00  -0.03   0.00     0.00   0.08  -0.01
 176   6    -0.00   0.00   0.04     0.00  -0.03  -0.01    -0.00   0.08  -0.01
 177   6    -0.01   0.01   0.08     0.00  -0.03  -0.02    -0.00   0.08  -0.01
 178   6    -0.01   0.01   0.11     0.00  -0.03  -0.02    -0.01   0.08  -0.01
 179   6    -0.01   0.01   0.09     0.00  -0.03  -0.02    -0.00   0.08  -0.01
 180   7    -0.00   0.01   0.05     0.00  -0.03  -0.01    -0.00   0.09  -0.01
 181   6    -0.01   0.02   0.11     0.00  -0.03  -0.03    -0.01   0.08  -0.02
 182   6    -0.01   0.02   0.09     0.00  -0.03  -0.03    -0.00   0.09  -0.02
 183   7    -0.00   0.02   0.05     0.00  -0.03  -0.02    -0.00   0.09  -0.01
 184   1    -0.00   0.01   0.04     0.00  -0.01  -0.02    -0.00   0.03  -0.01
 185   1    -0.00   0.01   0.02     0.00  -0.01  -0.01    -0.00   0.03  -0.01
 186   1     0.00   0.00  -0.02    -0.00  -0.01   0.01     0.00   0.03  -0.00
 187   1     0.00  -0.00  -0.04    -0.00  -0.01   0.02     0.00   0.03   0.00
 188   1     0.00  -0.00  -0.04    -0.00  -0.01   0.02     0.00   0.03   0.00
 189   1     0.00  -0.00  -0.04    -0.00  -0.01   0.01     0.00   0.02   0.00
 190   1     0.00  -0.00  -0.03    -0.00  -0.01   0.01     0.00   0.02  -0.00
 191   1    -0.00   0.00   0.03     0.00  -0.01  -0.00    -0.00   0.02  -0.00
 192   1    -0.00   0.00   0.04     0.00  -0.01  -0.01    -0.00   0.02  -0.00
 193   1    -0.00   0.01   0.04     0.00  -0.01  -0.01    -0.00   0.02  -0.01
                     10                     11                     12
                        a                      a                      a 
 Frequencies --     4.3040                 5.3236                 5.8146
 Red. masses --    11.2412                11.3521                12.6992
 Frc consts  --     0.0000                 0.0000                 0.0000
 IR Inten    --   505.9989                62.2091                 9.3686
 Raman Activ --     0.0000                 0.0000                 0.0000
 Depolar     --     0.0000                 0.0000                 0.0000
 Atom AN      X      Y      Z        X      Y      Z        X      Y      Z
   1  27     0.00  -0.00  -0.01    -0.00  -0.00  -0.03    -0.00  -0.02  -0.10
   2   6     0.00   0.00   0.10     0.00   0.00   0.04     0.02   0.01  -0.02
   3   6     0.00   0.00   0.07     0.00   0.00   0.03     0.01   0.01   0.00
   4   6     0.00   0.00   0.03     0.00   0.00   0.01     0.01   0.01  -0.00
   5   6     0.00   0.00  -0.00    -0.00   0.00   0.00    -0.00   0.01   0.01
   6   6    -0.00   0.00  -0.04    -0.00   0.00  -0.02    -0.01   0.01   0.00
   7   6    -0.00   0.00  -0.07    -0.00   0.00  -0.03    -0.02   0.01   0.01
   8   6    -0.00   0.00  -0.10    -0.00   0.00  -0.05    -0.02   0.01  -0.01
   9   6    -0.00   0.00  -0.08    -0.00   0.00  -0.05    -0.02  -0.00  -0.03
  10   7    -0.00   0.00  -0.05    -0.00   0.00  -0.03    -0.01   0.00  -0.03
  11   6    -0.00   0.00  -0.11    -0.00  -0.00  -0.06    -0.02  -0.01  -0.06
  12   6    -0.00  -0.00  -0.09    -0.00  -0.00  -0.06    -0.02  -0.01  -0.07
  13   6    -0.00  -0.00  -0.12    -0.00  -0.01  -0.08    -0.02  -0.02  -0.08
  14   6    -0.00  -0.00  -0.09    -0.00  -0.01  -0.07    -0.01  -0.03  -0.08
  15   6    -0.00  -0.00  -0.05    -0.00  -0.01  -0.04    -0.01  -0.02  -0.07
  16   7    -0.00  -0.00  -0.05    -0.00  -0.00  -0.04    -0.01  -0.02  -0.07
  17   6     0.00  -0.00  -0.01     0.00  -0.01  -0.03     0.00  -0.03  -0.07
  18   6     0.00  -0.00   0.03     0.00  -0.01  -0.00     0.01  -0.02  -0.07
  19   6     0.00  -0.00   0.07     0.00  -0.01   0.01     0.01  -0.03  -0.09
  20   6     0.00  -0.00   0.10     0.00  -0.00   0.03     0.02  -0.02  -0.09
  21   6     0.00  -0.00   0.08     0.00  -0.00   0.02     0.02  -0.01  -0.07
  22   7     0.00  -0.00   0.04     0.00  -0.00   0.00     0.01  -0.02  -0.07
  23   6     0.00   0.00   0.10     0.00  -0.00   0.03     0.02  -0.01  -0.06
  24   6     0.00   0.00   0.08     0.00   0.00   0.03     0.01  -0.00  -0.04
  25   7     0.00   0.00   0.04     0.00   0.00   0.01     0.01   0.00  -0.03
  26   1     0.00   0.00   0.04     0.00   0.00   0.02     0.01   0.00  -0.01
  27   1     0.00   0.00   0.02     0.00   0.00   0.01     0.00   0.01   0.01
  28   1    -0.00   0.00  -0.02    -0.00   0.00  -0.01    -0.00   0.01   0.01
  29   1    -0.00   0.00  -0.04    -0.00   0.00  -0.02    -0.01   0.00  -0.01
  30   1    -0.00   0.00  -0.04    -0.00  -0.00  -0.02    -0.01  -0.00  -0.02
  31   1    -0.00  -0.00  -0.04    -0.00  -0.00  -0.03    -0.01  -0.01  -0.02
  32   1    -0.00  -0.00  -0.03    -0.00  -0.00  -0.02    -0.00  -0.01  -0.03
  33   1     0.00  -0.00  -0.00     0.00  -0.00  -0.01     0.00  -0.01  -0.02
  34   1     0.00  -0.00   0.02     0.00  -0.00   0.00     0.00  -0.01  -0.03
  35   1     0.00  -0.00   0.04     0.00  -0.00   0.01     0.01  -0.01  -0.03
  36   1     0.00   0.00   0.04     0.00  -0.00   0.01     0.01  -0.00  -0.02
  37  27     0.00  -0.00  -0.01     0.00  -0.00  -0.02     0.00  -0.01  -0.09
  38   6     0.00  -0.02   0.10     0.00   0.01  -0.06     0.03   0.01  -0.01
  39   6     0.00  -0.01   0.07     0.00   0.01  -0.04     0.02   0.01   0.01
  40   6     0.00  -0.01   0.04     0.00   0.00  -0.02     0.01   0.01   0.00
  41   6     0.00   0.00   0.00    -0.00   0.00  -0.00     0.00   0.01   0.01
  42   6    -0.00   0.01  -0.04    -0.00  -0.00   0.01    -0.01   0.01  -0.00
  43   6    -0.00   0.01  -0.07    -0.00  -0.00   0.03    -0.02   0.01   0.00
  44   6    -0.00   0.02  -0.10    -0.00  -0.01   0.04    -0.03   0.01  -0.02
  45   6    -0.00   0.01  -0.09    -0.00  -0.01   0.03    -0.02   0.00  -0.04
  46   7    -0.00   0.01  -0.05    -0.00  -0.00   0.01    -0.01   0.00  -0.03
  47   6    -0.00   0.02  -0.11    -0.00  -0.01   0.04    -0.03  -0.00  -0.06
  48   6    -0.00   0.02  -0.09    -0.00  -0.01   0.03    -0.02  -0.01  -0.07
  49   6    -0.00   0.02  -0.12    -0.00  -0.01   0.04    -0.03  -0.02  -0.08
  50   6    -0.00   0.02  -0.09    -0.00  -0.01   0.03    -0.02  -0.03  -0.08
  51   6    -0.00   0.01  -0.05    -0.00  -0.01   0.01    -0.01  -0.02  -0.07
  52   7    -0.00   0.01  -0.05    -0.00  -0.01   0.01    -0.01  -0.01  -0.07
  53   6    -0.00   0.00  -0.01     0.00  -0.01  -0.02     0.00  -0.03  -0.07
  54   6     0.00  -0.01   0.03     0.00  -0.00  -0.04     0.01  -0.02  -0.07
  55   6     0.00  -0.01   0.08     0.00   0.00  -0.06     0.02  -0.03  -0.07
  56   6     0.00  -0.02   0.11     0.00   0.01  -0.08     0.03  -0.02  -0.07
  57   6     0.00  -0.02   0.09     0.00   0.01  -0.06     0.02  -0.01  -0.06
  58   7     0.00  -0.01   0.04     0.00   0.00  -0.04     0.01  -0.01  -0.06
  59   6     0.00  -0.02   0.11     0.00   0.01  -0.07     0.03  -0.00  -0.05
  60   6     0.00  -0.02   0.08     0.00   0.01  -0.05     0.02   0.00  -0.03
  61   7     0.00  -0.01   0.04     0.00   0.00  -0.03     0.01   0.00  -0.02
  62   1     0.00  -0.01   0.04     0.00   0.00  -0.02     0.01   0.00  -0.00
  63   1     0.00  -0.00   0.02     0.00   0.00  -0.01     0.01   0.01   0.01
  64   1    -0.00   0.00  -0.02    -0.00  -0.00   0.01    -0.01   0.01   0.01
  65   1    -0.00   0.01  -0.04    -0.00  -0.00   0.02    -0.01   0.00  -0.01
  66   1    -0.00   0.01  -0.04    -0.00  -0.00   0.02    -0.01  -0.00  -0.02
  67   1    -0.00   0.01  -0.05    -0.00  -0.00   0.02    -0.01  -0.01  -0.03
  68   1    -0.00   0.01  -0.03    -0.00  -0.00   0.01    -0.01  -0.01  -0.03
  69   1    -0.00   0.00  -0.00     0.00  -0.00  -0.00     0.00  -0.01  -0.02
  70   1     0.00  -0.00   0.02     0.00   0.00  -0.02     0.01  -0.01  -0.02
  71   1     0.00  -0.01   0.04     0.00   0.00  -0.03     0.01  -0.01  -0.02
  72   1     0.00  -0.01   0.04     0.00   0.00  -0.02     0.01  -0.00  -0.02
  73   6    -0.00   0.00  -0.00    -0.00   0.00   0.01    -0.00   0.02   0.03
  74   6     0.00   0.00  -0.00    -0.00   0.00   0.01    -0.00   0.02   0.05
  75   6    -0.00   0.00  -0.00    -0.00   0.01   0.01    -0.00   0.03   0.05
  76   6    -0.00   0.00   0.00    -0.00   0.01   0.01    -0.00   0.02   0.04
  77   6    -0.00  -0.00   0.01     0.00   0.01   0.05    -0.00   0.02   0.20
  78   6    -0.00  -0.00   0.01     0.00   0.01   0.06    -0.00   0.02   0.23
  79   6     0.00  -0.00   0.01     0.00   0.00   0.06    -0.00   0.02   0.23
  80   6     0.00  -0.00   0.01     0.00   0.00   0.05    -0.00   0.01   0.21
  81   6    -0.00  -0.00   0.01     0.00   0.00   0.04    -0.00   0.01   0.19
  82   6    -0.00  -0.00   0.01     0.00   0.00   0.05    -0.00   0.01   0.21
  83   6    -0.00  -0.00   0.01     0.00   0.00   0.05    -0.00   0.01   0.21
  84   6    -0.00   0.00   0.01     0.00   0.00   0.04    -0.00   0.01   0.18
  85   6     0.00   0.00   0.00    -0.00   0.00   0.01     0.00   0.02   0.04
  86   6     0.00   0.00   0.00     0.00   0.00   0.01     0.00   0.02   0.05
  87   6     0.00   0.00   0.00    -0.00   0.00   0.01     0.00   0.02   0.04
  88   6     0.00   0.00   0.00    -0.00   0.00   0.00     0.00   0.02   0.03
  89  27    -0.00   0.00   0.01    -0.00   0.00   0.01    -0.00   0.02   0.01
  90   6    -0.00  -0.02  -0.16    -0.00  -0.01  -0.15    -0.01   0.01  -0.04
  91   6    -0.00  -0.01  -0.12    -0.00  -0.01  -0.10    -0.01   0.02  -0.00
  92   6    -0.00  -0.00  -0.06    -0.00  -0.00  -0.05    -0.00   0.02   0.02
  93   6    -0.00   0.00   0.00    -0.00   0.00   0.01    -0.00   0.02   0.03
  94   6     0.00   0.01   0.06     0.00   0.01   0.05     0.00   0.01  -0.01
  95   6     0.00   0.01   0.12     0.00   0.01   0.09     0.01   0.01  -0.06
  96   6     0.00   0.02   0.17     0.00   0.02   0.12     0.01   0.00  -0.12
  97   6     0.00   0.02   0.13     0.00   0.01   0.09     0.01  -0.00  -0.10
  98   7     0.00   0.01   0.07     0.00   0.01   0.05     0.00   0.01  -0.04
  99   6     0.00   0.02   0.17     0.00   0.01   0.11     0.01  -0.01  -0.12
 100   6     0.00   0.02   0.14     0.00   0.01   0.10     0.01  -0.00  -0.05
 101   6     0.00   0.02   0.17     0.00   0.02   0.13     0.01   0.00  -0.02
 102   6     0.00   0.01   0.13     0.00   0.01   0.11     0.01   0.01   0.07
 103   6     0.00   0.01   0.07     0.00   0.01   0.07     0.00   0.01   0.09
 104   7     0.00   0.01   0.08     0.00   0.01   0.07     0.00   0.01   0.02
 105   6    -0.00   0.00   0.01     0.00   0.00   0.04    -0.00   0.02   0.15
 106   6    -0.00  -0.01  -0.05    -0.00  -0.00  -0.01    -0.00   0.02   0.12
 107   6    -0.00  -0.01  -0.11    -0.00  -0.01  -0.06    -0.01   0.01   0.12
 108   6    -0.00  -0.02  -0.16    -0.00  -0.01  -0.12    -0.01   0.01   0.05
 109   6    -0.00  -0.01  -0.13    -0.00  -0.01  -0.10    -0.01   0.01   0.01
 110   7    -0.00  -0.01  -0.07    -0.00  -0.00  -0.04    -0.00   0.01   0.05
 111   6    -0.00  -0.02  -0.16    -0.00  -0.01  -0.14    -0.01   0.00  -0.05
 112   6    -0.00  -0.01  -0.13    -0.00  -0.01  -0.12    -0.01   0.01  -0.04
 113   7    -0.00  -0.01  -0.07    -0.00  -0.00  -0.06    -0.00   0.01  -0.01
 114   1    -0.00  -0.01  -0.06    -0.00  -0.01  -0.06    -0.00   0.00  -0.02
 115   1    -0.00  -0.00  -0.04    -0.00  -0.00  -0.03    -0.00   0.01   0.00
 116   1     0.00   0.00   0.04     0.00   0.00   0.03     0.00   0.00  -0.01
 117   1     0.00   0.01   0.06     0.00   0.01   0.04     0.00  -0.00  -0.05
 118   1     0.00   0.01   0.06     0.00   0.01   0.04     0.00  -0.00  -0.05
 119   1     0.00   0.01   0.07     0.00   0.01   0.05     0.00  -0.00  -0.02
 120   1     0.00   0.00   0.04     0.00   0.00   0.04     0.00   0.00   0.04
 121   1    -0.00  -0.00  -0.03    -0.00  -0.00  -0.01    -0.00   0.01   0.05
 122   1    -0.00  -0.01  -0.06    -0.00  -0.01  -0.05    -0.00   0.00   0.01
 123   1    -0.00  -0.01  -0.06    -0.00  -0.01  -0.06    -0.00  -0.00  -0.02
 124  27    -0.00  -0.00   0.00    -0.00  -0.00   0.02    -0.00  -0.02   0.06
 125   6    -0.00  -0.00   0.00    -0.00   0.02   0.17    -0.00  -0.02  -0.08
 126   6    -0.00  -0.00   0.00     0.00   0.02   0.14    -0.00  -0.01   0.04
 127   6    -0.00  -0.00   0.00     0.00   0.01   0.09    -0.00  -0.00   0.08
 128   6    -0.00  -0.00   0.01     0.00   0.00   0.04    -0.00   0.01   0.15
 129   6    -0.00  -0.00   0.01    -0.00  -0.01  -0.03     0.00   0.00   0.12
 130   6    -0.00  -0.00   0.01    -0.00  -0.01  -0.10     0.00   0.00   0.11
 131   6    -0.00  -0.00  -0.00    -0.00  -0.02  -0.17     0.00  -0.01   0.02
 132   6    -0.00  -0.00  -0.00    -0.00  -0.02  -0.14     0.00  -0.01  -0.01
 133   7    -0.00  -0.00  -0.00    -0.00  -0.01  -0.06     0.00  -0.01   0.05
 134   6    -0.00  -0.00  -0.01     0.00  -0.03  -0.19     0.00  -0.02  -0.05
 135   6    -0.00  -0.00  -0.02     0.00  -0.02  -0.15     0.00  -0.02  -0.01
 136   6    -0.00  -0.00  -0.02     0.00  -0.02  -0.18     0.00  -0.01   0.01
 137   6    -0.00  -0.00  -0.02    -0.00  -0.01  -0.11     0.00  -0.00   0.10
 138   6    -0.00  -0.00  -0.01     0.00  -0.01  -0.04     0.00  -0.00   0.11
 139   7    -0.00  -0.00  -0.01     0.00  -0.01  -0.07     0.00  -0.01   0.05
 140   6    -0.00  -0.00   0.00     0.00   0.00   0.03    -0.00   0.00   0.14
 141   6    -0.00   0.00   0.01     0.00   0.01   0.08    -0.00  -0.01   0.07
 142   6     0.00   0.00   0.02     0.00   0.01   0.14    -0.00  -0.01   0.02
 143   6     0.00   0.00   0.02     0.00   0.02   0.17    -0.00  -0.03  -0.09
 144   6     0.00   0.00   0.02    -0.00   0.01   0.13    -0.00  -0.03  -0.09
 145   7    -0.00  -0.00   0.01     0.00   0.01   0.08    -0.00  -0.02   0.00
 146   6    -0.00  -0.00   0.01    -0.00   0.02   0.15    -0.00  -0.03  -0.16
 147   6    -0.00  -0.00   0.00    -0.00   0.01   0.13    -0.00  -0.02  -0.09
 148   7    -0.00  -0.00   0.00    -0.00   0.01   0.09    -0.00  -0.01   0.01
 149   1     0.00  -0.00   0.00    -0.00   0.01   0.06    -0.00  -0.01  -0.04
 150   1    -0.00  -0.00  -0.00     0.00   0.01   0.05    -0.00  -0.00   0.02
 151   1    -0.00  -0.00   0.00    -0.00  -0.00  -0.03     0.00   0.00   0.05
 152   1    -0.00  -0.00  -0.00    -0.00  -0.01  -0.07     0.00  -0.00  -0.00
 153   1    -0.00  -0.00  -0.01     0.00  -0.01  -0.08     0.00  -0.01  -0.03
 154   1    -0.00  -0.00  -0.01     0.00  -0.01  -0.07     0.00  -0.01  -0.01
 155   1    -0.00  -0.00  -0.01    -0.00  -0.00  -0.03     0.00   0.00   0.04
 156   1     0.00   0.00   0.01     0.00   0.00   0.04    -0.00  -0.00   0.02
 157   1     0.00   0.00   0.01     0.00   0.01   0.06    -0.00  -0.01  -0.05
 158   1     0.00   0.00   0.00    -0.00   0.01   0.06    -0.00  -0.01  -0.07
 159  27     0.00   0.00   0.00    -0.00   0.00  -0.00     0.00   0.01   0.01
 160   6     0.00   0.02   0.16     0.00  -0.02  -0.14     0.01   0.00   0.03
 161   6     0.00   0.01   0.12     0.00  -0.01  -0.08     0.01   0.01   0.10
 162   6     0.00   0.01   0.06     0.00  -0.00  -0.03     0.00   0.01   0.10
 163   6     0.00   0.00   0.00     0.00   0.00   0.03     0.00   0.01   0.13
 164   6    -0.00  -0.01  -0.05    -0.00   0.01   0.07    -0.00   0.01   0.09
 165   6    -0.00  -0.01  -0.12    -0.00   0.01   0.12    -0.01   0.00   0.07
 166   6    -0.00  -0.02  -0.16    -0.00   0.02   0.14    -0.01  -0.00  -0.01
 167   6    -0.00  -0.01  -0.13    -0.00   0.01   0.11    -0.01  -0.00  -0.04
 168   7    -0.00  -0.01  -0.07    -0.00   0.01   0.07    -0.00   0.00   0.02
 169   6    -0.00  -0.02  -0.16    -0.00   0.01   0.12    -0.01  -0.01  -0.11
 170   6    -0.00  -0.01  -0.13    -0.00   0.01   0.10    -0.01   0.00  -0.09
 171   6    -0.00  -0.01  -0.16    -0.00   0.01   0.13    -0.01   0.00  -0.11
 172   6    -0.00  -0.01  -0.11    -0.00   0.01   0.10    -0.01   0.01  -0.05
 173   6    -0.00  -0.00  -0.05    -0.00   0.01   0.05    -0.00   0.01  -0.01
 174   7    -0.00  -0.01  -0.07    -0.00   0.01   0.06    -0.00   0.01  -0.04
 175   6    -0.00   0.00   0.00     0.00   0.00   0.00     0.00   0.02   0.02
 176   6     0.00   0.01   0.06     0.00  -0.00  -0.06     0.00   0.01   0.01
 177   6     0.00   0.01   0.11     0.00  -0.01  -0.12     0.01   0.02  -0.01
 178   6     0.00   0.02   0.16     0.00  -0.02  -0.17     0.01   0.01  -0.05
 179   6     0.00   0.01   0.13     0.00  -0.01  -0.14     0.01   0.00  -0.05
 180   7     0.00   0.01   0.07     0.00  -0.01  -0.07     0.00   0.01  -0.01
 181   6     0.00   0.02   0.16     0.00  -0.02  -0.16     0.01  -0.00  -0.06
 182   6     0.00   0.01   0.13     0.00  -0.01  -0.12     0.01   0.00  -0.01
 183   7     0.00   0.01   0.07     0.00  -0.01  -0.06     0.00   0.01   0.04
 184   1     0.00   0.01   0.06     0.00  -0.01  -0.05     0.00  -0.00   0.00
 185   1     0.00   0.00   0.04     0.00  -0.00  -0.02     0.00   0.00   0.04
 186   1    -0.00  -0.00  -0.03    -0.00   0.00   0.04    -0.00   0.00   0.03
 187   1    -0.00  -0.01  -0.06    -0.00   0.01   0.05    -0.00  -0.00  -0.01
 188   1    -0.00  -0.01  -0.06    -0.00   0.01   0.05    -0.00  -0.00  -0.04
 189   1    -0.00  -0.01  -0.06    -0.00   0.01   0.05    -0.00  -0.00  -0.04
 190   1    -0.00  -0.00  -0.03    -0.00   0.00   0.03    -0.00   0.00  -0.01
 191   1     0.00   0.00   0.03     0.00  -0.00  -0.04     0.00   0.01   0.00
 192   1     0.00   0.01   0.06     0.00  -0.01  -0.07     0.00   0.00  -0.02
 193   1     0.00   0.01   0.06     0.00  -0.01  -0.06     0.00  -0.00  -0.03
                     13                     14                     15
                        a                      a                      a 
 Frequencies --     6.6780                 9.2634                 9.8542
 Red. masses --    14.1260                11.8554                11.6868
 Frc consts  --     0.0000                 0.0000                 0.0000
 IR Inten    --     0.5698                16.2801                 4.9274
 Raman Activ --     0.0000                 0.0000                 0.0000
 Depolar     --     0.0000                 0.0000                 0.0000
 Atom AN      X      Y      Z        X      Y      Z        X      Y      Z
   1  27    -0.00   0.03  -0.02    -0.00  -0.00   0.04    -0.00  -0.01  -0.03
   2   6    -0.08  -0.05   0.00    -0.05  -0.04  -0.01    -0.05  -0.04   0.01
   3   6    -0.06  -0.07   0.01    -0.04  -0.05  -0.04    -0.04  -0.06   0.04
   4   6    -0.03  -0.05   0.01    -0.02  -0.04  -0.04    -0.02  -0.05   0.03
   5   6    -0.00  -0.07   0.01    -0.00  -0.05  -0.06    -0.00  -0.06   0.05
   6   6     0.03  -0.05   0.00     0.02  -0.04  -0.04     0.02  -0.05   0.03
   7   6     0.06  -0.07   0.00     0.04  -0.05  -0.04     0.04  -0.06   0.03
   8   6     0.08  -0.05  -0.01     0.05  -0.04  -0.01     0.05  -0.04   0.01
   9   6     0.07  -0.02  -0.01     0.04  -0.02   0.01     0.04  -0.02  -0.01
  10   7     0.04  -0.02  -0.01     0.02  -0.02  -0.00     0.02  -0.03   0.00
  11   6     0.08   0.01  -0.02     0.05  -0.00   0.04     0.05  -0.00  -0.04
  12   6     0.06   0.04  -0.02     0.04   0.02   0.05     0.04   0.02  -0.04
  13   6     0.08   0.07  -0.03     0.05   0.04   0.07     0.05   0.04  -0.05
  14   6     0.06   0.10  -0.03     0.04   0.05   0.06     0.04   0.05  -0.05
  15   6     0.03   0.08  -0.02     0.02   0.04   0.04     0.02   0.04  -0.03
  16   7     0.03   0.05  -0.02     0.02   0.02   0.04     0.02   0.02  -0.03
  17   6    -0.00   0.10  -0.02    -0.00   0.05   0.04    -0.00   0.05  -0.03
  18   6    -0.03   0.08  -0.02    -0.02   0.04   0.04    -0.02   0.04  -0.03
  19   6    -0.06   0.10  -0.02    -0.04   0.05   0.06    -0.04   0.05  -0.04
  20   6    -0.08   0.07  -0.02    -0.05   0.04   0.06    -0.05   0.03  -0.05
  21   6    -0.07   0.04  -0.01    -0.04   0.02   0.05    -0.04   0.01  -0.04
  22   7    -0.04   0.05  -0.02    -0.02   0.02   0.04    -0.02   0.02  -0.03
  23   6    -0.08   0.01  -0.01    -0.05  -0.00   0.04    -0.05  -0.00  -0.03
  24   6    -0.07  -0.02  -0.00    -0.04  -0.02   0.01    -0.04  -0.02  -0.01
[...]
 140   6     0.00  -0.00   0.00     0.00  -0.00   0.00    -0.00   0.00  -0.00
 141   6     0.00   0.00  -0.00     0.00   0.00  -0.00    -0.00  -0.00   0.00
 142   6     0.08  -0.01   0.00     0.10  -0.01   0.00    -0.12   0.01  -0.00
 143   6     0.00  -0.06   0.01     0.00  -0.07   0.01    -0.00   0.08  -0.01
 144   6    -0.00  -0.00   0.00    -0.00  -0.00   0.00     0.00   0.00  -0.00
 145   7    -0.00   0.00  -0.00    -0.00   0.00  -0.00     0.00  -0.00   0.00
 146   6     0.00  -0.00   0.00     0.00  -0.00   0.00    -0.00   0.00  -0.00
 147   6    -0.00   0.00  -0.00     0.00  -0.00   0.00    -0.00  -0.00   0.00
 148   7    -0.00  -0.00   0.00     0.00   0.00  -0.00    -0.00  -0.00   0.00
 149   1    -0.01  -0.06   0.01     0.02   0.19  -0.02    -0.00  -0.03   0.00
 150   1    -0.10  -0.01   0.00     0.27   0.03  -0.00    -0.04  -0.00   0.00
 151   1     0.25  -0.03   0.00    -0.17   0.02  -0.00     0.16  -0.02   0.00
 152   1     0.02  -0.17   0.02    -0.01   0.11  -0.01     0.01  -0.10   0.01
 153   1    -0.00  -0.00   0.00    -0.00   0.01  -0.00    -0.00   0.00  -0.00
 154   1    -0.01  -0.06   0.01     0.01   0.14  -0.02     0.01   0.12  -0.01
 155   1    -0.08  -0.01   0.00     0.20   0.02  -0.00     0.18   0.02  -0.00
 156   1    -0.26   0.03  -0.00    -0.34   0.04  -0.00     0.39  -0.04   0.00
 157   1    -0.02   0.18  -0.02    -0.02   0.23  -0.03     0.03  -0.26   0.03
 158   1     0.00   0.00  -0.00     0.00   0.01  -0.00    -0.00  -0.01   0.00
 159  27    -0.00   0.00  -0.00    -0.00   0.00  -0.00    -0.00  -0.00   0.00
 160   6    -0.00  -0.00   0.00    -0.00  -0.03   0.00     0.00   0.04  -0.01
 161   6    -0.00  -0.00   0.00    -0.05  -0.00   0.00     0.06   0.00  -0.00
 162   6    -0.00  -0.00  -0.00    -0.00   0.00  -0.00     0.00  -0.00   0.00
 163   6     0.00  -0.00   0.00     0.00  -0.00   0.00     0.00   0.00  -0.00
 164   6     0.00   0.00  -0.00     0.00   0.00  -0.00     0.00   0.00  -0.00
 165   6     0.11  -0.01   0.00     0.10  -0.01   0.00     0.02  -0.00   0.00
 166   6     0.00  -0.08   0.01     0.00  -0.07   0.01     0.00  -0.01   0.00
 167   6    -0.00  -0.00   0.00    -0.00  -0.00   0.00    -0.00  -0.00   0.00
 168   7    -0.00   0.00  -0.00    -0.00   0.00  -0.00    -0.00   0.00  -0.00
 169   6     0.00  -0.00   0.00     0.00  -0.00   0.00     0.00   0.00  -0.00
 170   6    -0.00   0.00  -0.00    -0.00   0.00  -0.00    -0.00   0.00  -0.00
 171   6     0.00   0.01  -0.00     0.00   0.03  -0.00     0.01   0.11  -0.01
 172   6     0.02   0.00   0.00     0.05   0.00   0.00     0.15   0.01   0.00
 173   6     0.00  -0.00   0.00     0.00  -0.00   0.00     0.00  -0.01   0.00
 174   7    -0.00  -0.00   0.00    -0.00  -0.00   0.00    -0.00  -0.00   0.00
 175   6     0.00  -0.00   0.00     0.00  -0.00   0.00     0.00   0.00  -0.00
 176   6     0.00   0.00  -0.00     0.00   0.00  -0.00     0.00   0.00  -0.00
 177   6     0.03  -0.00  -0.00     0.06  -0.00  -0.00     0.04  -0.00  -0.00
 178   6     0.00  -0.02   0.00     0.00  -0.04   0.00     0.00  -0.03   0.00
 179   6    -0.00  -0.00   0.00    -0.00  -0.00   0.00    -0.00  -0.00   0.00
 180   7    -0.00   0.00  -0.00    -0.00   0.00  -0.00    -0.00   0.00  -0.00
 181   6     0.00  -0.00   0.00     0.00  -0.00   0.00     0.00   0.00  -0.00
 182   6     0.00  -0.00  -0.00     0.00  -0.00  -0.00    -0.00   0.00  -0.00
 183   7    -0.00   0.00  -0.00     0.00   0.00  -0.00    -0.00  -0.00   0.00
 184   1     0.00   0.00  -0.00     0.01   0.10  -0.01    -0.01  -0.13   0.02
 185   1     0.01   0.00  -0.00     0.15   0.02  -0.00    -0.21  -0.02   0.00
 186   1    -0.37   0.04  -0.01    -0.34   0.04  -0.01    -0.08   0.01  -0.00
 187   1    -0.02   0.25  -0.03    -0.02   0.22  -0.03    -0.00   0.04  -0.01
 188   1     0.00   0.00  -0.00     0.00   0.00  -0.00     0.00  -0.01   0.00
 189   1    -0.00  -0.04   0.00    -0.01  -0.10   0.01    -0.03  -0.34   0.03
 190   1    -0.06  -0.01   0.00    -0.16  -0.02   0.00    -0.50  -0.05   0.00
 191   1    -0.09   0.01   0.00    -0.19   0.02   0.00    -0.15   0.02   0.00
 192   1    -0.01   0.06  -0.01    -0.01   0.13  -0.01    -0.01   0.09  -0.01
 193   1     0.00   0.00  -0.00     0.00   0.01  -0.00     0.00  -0.00   0.00
                    571                    572                    573
                        a                      a                      a 
 Frequencies --  3169.7883              3169.8600              3170.0628
 Red. masses --     1.9712                 1.9717                 1.9720
 Frc consts  --     0.0000                 0.0000                 0.0000
 IR Inten    --   311.0329              8442.2580                33.1894
 Raman Activ --     0.0000                 0.0000                 0.0000
 Depolar     --     0.0000                 0.0000                 0.0000
 Atom AN      X      Y      Z        X      Y      Z        X      Y      Z
   1  27     0.00  -0.00   0.00     0.00  -0.00   0.00    -0.00   0.00  -0.00
   2   6    -0.00   0.04  -0.00    -0.00   0.03  -0.00     0.00  -0.02   0.00
   3   6    -0.06   0.00   0.00    -0.04   0.00   0.00     0.03  -0.00  -0.00
   4   6    -0.00  -0.00   0.00    -0.00  -0.00   0.00     0.00   0.00  -0.00
   5   6    -0.00   0.00  -0.00    -0.00   0.00  -0.00     0.00  -0.00   0.00
   6   6    -0.00   0.00   0.00    -0.00   0.00   0.00     0.00  -0.00  -0.00
   7   6    -0.03  -0.00   0.00    -0.02  -0.00   0.00     0.03   0.00  -0.00
   8   6    -0.00  -0.02  -0.00    -0.00  -0.02  -0.00     0.00   0.02   0.00
   9   6     0.00  -0.00  -0.00     0.00  -0.00  -0.00    -0.00   0.00   0.00
  10   7     0.00   0.00   0.00     0.00   0.00   0.00    -0.00  -0.00  -0.00
  11   6    -0.00  -0.00  -0.00    -0.00  -0.00  -0.00     0.00   0.00   0.00
  12   6    -0.00   0.00   0.00    -0.00   0.00   0.00     0.00   0.00   0.00
  13   6     0.00  -0.00  -0.00     0.00  -0.00  -0.00    -0.00   0.00   0.00
  14   6     0.00  -0.00   0.00     0.00  -0.00   0.00    -0.00   0.00  -0.00
  15   6     0.00   0.00   0.00     0.00   0.00   0.00    -0.00  -0.00  -0.00
  16   7     0.00   0.00  -0.00     0.00   0.00  -0.00     0.00  -0.00   0.00
  17   6     0.00   0.00   0.00     0.00   0.00   0.00    -0.00  -0.00  -0.00
  18   6     0.00  -0.00   0.00     0.00  -0.00   0.00    -0.00   0.00  -0.00
  19   6     0.00   0.00   0.00     0.00   0.00   0.00    -0.00  -0.00  -0.00
  20   6     0.00   0.00  -0.00     0.00   0.00  -0.00    -0.00  -0.00   0.00
  21   6    -0.00  -0.00   0.00    -0.00  -0.00  -0.00     0.00  -0.00   0.00
  22   7     0.00  -0.00   0.00     0.00  -0.00   0.00     0.00   0.00  -0.00
  23   6    -0.00   0.00  -0.00    -0.00   0.00  -0.00     0.00  -0.00   0.00
  24   6     0.00   0.00  -0.00     0.00   0.00  -0.00    -0.00  -0.00   0.00
  25   7     0.00  -0.00   0.00     0.00  -0.00   0.00    -0.00   0.00  -0.00
  26   1     0.01  -0.14   0.00     0.01  -0.08   0.00    -0.01   0.07  -0.00
  27   1     0.21  -0.02  -0.00     0.12  -0.01  -0.00    -0.11   0.01   0.00
  28   1     0.11   0.01  -0.00     0.07   0.01  -0.00    -0.09  -0.01   0.00
  29   1     0.01   0.07   0.00     0.00   0.05   0.00    -0.01  -0.06  -0.00
  30   1    -0.00   0.00   0.00    -0.00   0.00   0.00     0.00  -0.00  -0.00
  31   1    -0.00   0.00   0.00    -0.00   0.00   0.00     0.00  -0.01  -0.00
  32   1    -0.00   0.00  -0.00    -0.00   0.00  -0.00     0.01  -0.00   0.00
  33   1    -0.00  -0.00  -0.00    -0.00  -0.00  -0.00     0.00   0.00   0.00
  34   1    -0.00  -0.00  -0.00    -0.00  -0.00  -0.00     0.01   0.00   0.00
  35   1    -0.00  -0.01   0.00    -0.00  -0.00   0.00     0.00   0.01  -0.00
  36   1    -0.00  -0.00   0.00    -0.00  -0.00   0.00     0.00   0.00  -0.00
  37  27    -0.00   0.00   0.00     0.00  -0.00  -0.00     0.00  -0.00  -0.00
  38   6     0.00  -0.02  -0.00    -0.00   0.02   0.00    -0.00   0.02   0.00
  39   6     0.02  -0.00   0.00    -0.02   0.00  -0.00    -0.03   0.00  -0.00
  40   6     0.00   0.00   0.00    -0.00  -0.00  -0.00    -0.00  -0.00  -0.00
  41   6     0.00  -0.00  -0.00    -0.00   0.00   0.00    -0.00   0.00   0.00
  42   6     0.00  -0.00  -0.00    -0.00   0.00   0.00    -0.00   0.00   0.00
  43   6     0.01   0.00   0.00    -0.01  -0.00  -0.00    -0.02  -0.00  -0.00
  44   6     0.00   0.01   0.00    -0.00  -0.01  -0.00    -0.00  -0.01  -0.00
  45   6    -0.00   0.00   0.00     0.00  -0.00  -0.00     0.00  -0.00  -0.00
  46   7    -0.00  -0.00  -0.00     0.00   0.00   0.00     0.00   0.00   0.00
  47   6     0.00   0.00   0.00    -0.00  -0.00  -0.00    -0.00  -0.00  -0.00
  48   6     0.00   0.00  -0.00    -0.00   0.00   0.00    -0.00  -0.00  -0.00
  49   6    -0.00   0.00   0.00     0.00  -0.00  -0.00     0.00  -0.00  -0.00
  50   6    -0.00   0.00   0.00     0.00  -0.00  -0.00     0.00  -0.00  -0.00
  51   6    -0.00  -0.00  -0.00     0.00   0.00   0.00     0.00   0.00   0.00
  52   7     0.00  -0.00  -0.00     0.00   0.00  -0.00    -0.00   0.00   0.00
  53   6    -0.00  -0.00   0.00     0.00   0.00  -0.00     0.00   0.00  -0.00
  54   6    -0.00   0.00   0.00     0.00  -0.00  -0.00     0.00  -0.00  -0.00
  55   6    -0.00  -0.00   0.00     0.00   0.00  -0.00     0.00   0.00  -0.00
  56   6    -0.00  -0.00  -0.00     0.00   0.00   0.00     0.00   0.00   0.00
  57   6     0.00  -0.00   0.00    -0.00  -0.00  -0.00    -0.00   0.00   0.00
  58   7     0.00   0.00   0.00     0.00  -0.00  -0.00    -0.00  -0.00  -0.00
  59   6     0.00  -0.00  -0.00    -0.00   0.00   0.00    -0.00   0.00   0.00
  60   6    -0.00  -0.00  -0.00     0.00   0.00   0.00     0.00   0.00   0.00
  61   7    -0.00   0.00   0.00     0.00  -0.00  -0.00     0.00  -0.00  -0.00
  62   1    -0.01   0.05   0.01     0.01  -0.05  -0.01     0.01  -0.07  -0.01
  63   1    -0.08   0.01   0.00     0.08  -0.01  -0.00     0.10  -0.01  -0.00
  64   1    -0.05  -0.01  -0.00     0.03   0.00   0.00     0.07   0.01   0.00
  65   1    -0.00  -0.03  -0.00     0.00   0.02   0.00     0.00   0.05   0.01
  66   1     0.00  -0.00  -0.00    -0.00   0.00   0.00    -0.00   0.00   0.00
  67   1     0.00  -0.00  -0.00    -0.00   0.00   0.00    -0.00   0.01   0.00
  68   1     0.00  -0.00  -0.00    -0.00   0.00   0.00    -0.01   0.00   0.00
  69   1     0.00   0.00  -0.00    -0.00  -0.00   0.00    -0.00  -0.00   0.00
  70   1     0.00   0.00   0.00    -0.00  -0.00  -0.00    -0.01  -0.00  -0.00
  71   1     0.00   0.00   0.00    -0.00  -0.00  -0.00    -0.00  -0.01  -0.00
  72   1     0.00   0.00   0.00    -0.00  -0.00  -0.00    -0.00  -0.00  -0.00
  73   6     0.00   0.00  -0.00     0.00   0.00  -0.00    -0.00  -0.00   0.00
  74   6    -0.00  -0.00   0.00    -0.00  -0.00   0.00     0.00   0.00  -0.00
  75   6     0.00  -0.00   0.00     0.00  -0.00   0.00    -0.00   0.00  -0.00
  76   6    -0.00   0.00  -0.00    -0.00   0.00  -0.00     0.00  -0.00   0.00
  77   6    -0.00   0.00  -0.00     0.00   0.00  -0.00    -0.00   0.00   0.00
  78   6     0.00  -0.00   0.00    -0.00  -0.00   0.00     0.00  -0.00   0.00
  79   6    -0.00  -0.00   0.00     0.00   0.00  -0.00    -0.00  -0.00   0.00
  80   6     0.00   0.00  -0.00    -0.00  -0.00   0.00     0.00   0.00  -0.00
  81   6    -0.00   0.00  -0.00    -0.00   0.00  -0.00    -0.00   0.00  -0.00
  82   6     0.00  -0.00   0.00     0.00  -0.00   0.00     0.00  -0.00   0.00
  83   6     0.00  -0.00   0.00    -0.00  -0.00   0.00    -0.00  -0.00   0.00
  84   6    -0.00  -0.00   0.00     0.00   0.00  -0.00     0.00   0.00  -0.00
  85   6     0.00  -0.00   0.00    -0.00   0.00  -0.00    -0.00   0.00  -0.00
  86   6    -0.00   0.00  -0.00     0.00  -0.00   0.00     0.00  -0.00   0.00
  87   6     0.00   0.00   0.00    -0.00  -0.00  -0.00    -0.00  -0.00  -0.00
  88   6    -0.00  -0.00  -0.00     0.00   0.00   0.00     0.00   0.00   0.00
  89  27    -0.00  -0.00   0.00    -0.00  -0.00   0.00    -0.00   0.00  -0.00
  90   6     0.00   0.10  -0.01     0.00   0.07  -0.01    -0.00  -0.05   0.01
  91   6     0.14   0.01  -0.00     0.10   0.01  -0.00    -0.07  -0.00   0.00
  92   6     0.00  -0.01   0.00     0.00  -0.00   0.00    -0.00   0.00  -0.00
  93   6     0.00   0.00  -0.00     0.00   0.00  -0.00    -0.00  -0.00   0.00
  94   6     0.00   0.00  -0.00     0.00   0.00  -0.00    -0.00  -0.00   0.00
  95   6     0.05  -0.00   0.00     0.05  -0.00   0.00    -0.04   0.00  -0.00
  96   6     0.00  -0.03   0.00     0.00  -0.03   0.00    -0.00   0.03  -0.00
  97   6    -0.00  -0.00   0.00    -0.00  -0.00   0.00     0.00   0.00  -0.00
  98   7    -0.00   0.00  -0.00    -0.00   0.00  -0.00     0.00  -0.00   0.00
  99   6     0.00   0.00  -0.00    -0.00  -0.00   0.00     0.00   0.00  -0.00
 100   6    -0.00   0.00  -0.00     0.00  -0.00   0.00    -0.00   0.00  -0.00
 101   6     0.00   0.04  -0.00    -0.00  -0.04   0.01     0.00   0.05  -0.01
 102   6     0.07   0.00  -0.00    -0.07  -0.00   0.00     0.07   0.00  -0.00
 103   6     0.00  -0.00   0.00    -0.00   0.00  -0.00     0.00  -0.00   0.00
 104   7    -0.00  -0.00   0.00     0.00   0.00  -0.00    -0.00  -0.00   0.00
 105   6     0.00   0.00  -0.00    -0.00   0.00  -0.00     0.00   0.00  -0.00
 106   6     0.00   0.00  -0.00    -0.00  -0.00   0.00     0.00   0.00  -0.00
 107   6     0.01  -0.00   0.00    -0.08   0.01  -0.00     0.07  -0.00   0.00
 108   6     0.00  -0.00   0.00    -0.00   0.06  -0.01     0.00  -0.05   0.01
 109   6    -0.00  -0.00   0.00     0.00   0.00  -0.00    -0.00  -0.00   0.00
 110   7    -0.00  -0.00   0.00     0.00  -0.00   0.00    -0.00   0.00  -0.00
 111   6     0.00   0.00  -0.00     0.00   0.00  -0.00     0.00  -0.00   0.00
 112   6    -0.00   0.00  -0.00    -0.00   0.00  -0.00     0.00  -0.00   0.00
 113   7    -0.00  -0.00   0.00    -0.00  -0.00   0.00     0.00   0.00  -0.00
 114   1    -0.03  -0.31   0.04    -0.02  -0.22   0.02     0.01   0.15  -0.02
 115   1    -0.47  -0.05   0.01    -0.32  -0.03   0.00     0.21   0.02  -0.00
 116   1    -0.16   0.02  -0.00    -0.15   0.02  -0.00     0.14  -0.02   0.00
 117   1    -0.01   0.11  -0.01    -0.01   0.10  -0.01     0.01  -0.10   0.01
 118   1     0.00  -0.00   0.00    -0.00   0.00  -0.00     0.00  -0.01   0.00
 119   1    -0.01  -0.14   0.02     0.01   0.14  -0.02    -0.02  -0.15   0.02
 120   1    -0.21  -0.02   0.00     0.21   0.02  -0.00    -0.23  -0.02   0.00
 121   1    -0.02   0.00  -0.00     0.26  -0.03   0.00    -0.22   0.02  -0.00
 122   1    -0.00   0.01  -0.00     0.02  -0.18   0.02    -0.01   0.15  -0.02
 123   1     0.00  -0.01   0.00     0.00  -0.01   0.00     0.00   0.01  -0.00
 124  27     0.00  -0.00   0.00    -0.00  -0.00  -0.00    -0.00  -0.00   0.00
 125   6    -0.00  -0.03   0.00     0.00   0.03  -0.00    -0.00  -0.04   0.01
 126   6    -0.04  -0.00   0.00     0.05   0.00  -0.00    -0.06  -0.00   0.00
 127   6    -0.00   0.00  -0.00     0.00  -0.00   0.00    -0.00   0.00  -0.00
 128   6    -0.00   0.00  -0.00     0.00  -0.00   0.00    -0.00   0.00  -0.00
 129   6    -0.00  -0.00   0.00     0.00   0.00  -0.00    -0.00  -0.00   0.00
 130   6    -0.13   0.01  -0.00     0.06  -0.00   0.00    -0.09   0.01  -0.00
 131   6    -0.00   0.09  -0.01     0.00  -0.04   0.00    -0.00   0.06  -0.01
 132   6     0.00   0.00  -0.00    -0.00  -0.00   0.00     0.00   0.00  -0.00
 133   7     0.00  -0.00   0.00    -0.00   0.00  -0.00     0.00  -0.00   0.00
 134   6    -0.00   0.00  -0.00     0.00   0.00  -0.00    -0.00   0.00  -0.00
 135   6    -0.00   0.00  -0.00    -0.00   0.00  -0.00    -0.00   0.00  -0.00
 136   6     0.00   0.02  -0.00     0.00   0.04  -0.00     0.00   0.05  -0.01
 137   6     0.03   0.00  -0.00     0.06   0.00  -0.00     0.08   0.01  -0.00
 138   6     0.00  -0.00   0.00     0.00  -0.00   0.00     0.00  -0.00   0.00
 139   7    -0.00  -0.00   0.00    -0.00  -0.00   0.00    -0.00  -0.00   0.00
 140   6     0.00   0.00  -0.00     0.00   0.00  -0.00     0.00   0.00  -0.00
 141   6     0.00   0.00  -0.00     0.00   0.00  -0.00     0.00   0.00  -0.00
 142   6     0.01  -0.00   0.00     0.04  -0.00   0.00     0.07  -0.01   0.00
 143   6     0.00  -0.01   0.00     0.00  -0.03   0.00     0.00  -0.05   0.01
 144   6    -0.00  -0.00   0.00    -0.00  -0.00   0.00    -0.00  -0.00   0.00
 145   7    -0.00   0.00  -0.00    -0.00   0.00  -0.00    -0.00   0.00  -0.00
 146   6    -0.00  -0.00   0.00     0.00   0.00  -0.00     0.00  -0.00   0.00
 147   6     0.00  -0.00   0.00    -0.00   0.00  -0.00     0.00  -0.00   0.00
 148   7     0.00   0.00  -0.00    -0.00  -0.00   0.00     0.00   0.00  -0.00
 149   1     0.01   0.10  -0.01    -0.01  -0.10   0.01     0.01   0.13  -0.02
 150   1     0.15   0.02  -0.00    -0.15  -0.02   0.00     0.19   0.02  -0.00
 151   1     0.42  -0.05   0.01    -0.19   0.02  -0.00     0.29  -0.03   0.00
 152   1     0.03  -0.28   0.03    -0.01   0.12  -0.01     0.02  -0.19   0.02
 153   1    -0.00  -0.01   0.00     0.00  -0.00   0.00    -0.00  -0.01   0.00
 154   1    -0.01  -0.08   0.01    -0.01  -0.13   0.01    -0.02  -0.17   0.02
 155   1    -0.11  -0.01   0.00    -0.20  -0.02   0.00    -0.25  -0.03   0.00
 156   1    -0.05   0.00  -0.00    -0.14   0.01  -0.00    -0.23   0.02  -0.00
 157   1    -0.00   0.03  -0.00    -0.01   0.09  -0.01    -0.02   0.16  -0.02
 158   1    -0.00   0.00  -0.00     0.00  -0.00   0.00     0.00   0.01  -0.00
 159  27     0.00   0.00  -0.00     0.00  -0.00   0.00     0.00  -0.00   0.00
 160   6     0.00   0.01  -0.00    -0.00  -0.04   0.00    -0.00  -0.04   0.00
 161   6     0.01   0.00  -0.00    -0.05  -0.00   0.00    -0.06  -0.00   0.00
 162   6     0.00  -0.00   0.00    -0.00   0.00  -0.00    -0.00   0.00  -0.00
 163   6     0.00  -0.00   0.00    -0.00   0.00  -0.00    -0.00   0.00  -0.00
 164   6     0.00   0.00  -0.00    -0.00  -0.00   0.00    -0.00  -0.00   0.00
 165   6     0.01  -0.00   0.00    -0.11   0.01  -0.00    -0.09   0.01  -0.00
 166   6     0.00  -0.01   0.00    -0.00   0.08  -0.01    -0.00   0.06  -0.01
 167   6    -0.00  -0.00  -0.00     0.00   0.00  -0.00     0.00   0.00  -0.00
 168   7    -0.00   0.00  -0.00     0.00  -0.00   0.00     0.00  -0.00   0.00
 169   6    -0.00  -0.00   0.00    -0.00   0.00  -0.00    -0.00   0.00  -0.00
 170   6     0.00  -0.00   0.00    -0.00   0.00  -0.00    -0.00   0.00  -0.00
 171   6    -0.00  -0.04   0.00     0.00   0.06  -0.01     0.00   0.05  -0.00
 172   6    -0.06  -0.00  -0.00     0.08   0.01   0.00     0.07   0.00   0.00
 173   6    -0.00   0.00  -0.00     0.00  -0.00   0.00     0.00  -0.00   0.00
 174   7     0.00   0.00  -0.00    -0.00  -0.00   0.00    -0.00  -0.00   0.00
 175   6    -0.00  -0.00   0.00     0.00   0.00  -0.00     0.00   0.00  -0.00
 176   6    -0.00  -0.00   0.00     0.00   0.00  -0.00     0.00   0.00  -0.00
 177   6    -0.03   0.00   0.00     0.03  -0.00  -0.00     0.03  -0.00  -0.00
 178   6    -0.00   0.02  -0.00     0.00  -0.02   0.00     0.00  -0.03   0.00
 179   6     0.00   0.00  -0.00    -0.00  -0.00   0.00    -0.00  -0.00   0.00
 180   7     0.00  -0.00   0.00    -0.00   0.00  -0.00    -0.00   0.00  -0.00
 181   6    -0.00   0.00  -0.00    -0.00  -0.00   0.00    -0.00  -0.00   0.00
 182   6    -0.00   0.00  -0.00     0.00  -0.00   0.00     0.00  -0.00   0.00
 183   7    -0.00  -0.00   0.00     0.00   0.00  -0.00     0.00   0.00  -0.00
 184   1    -0.00  -0.03   0.00     0.01   0.11  -0.01     0.01   0.12  -0.01
 185   1    -0.04  -0.00   0.00     0.17   0.02  -0.00     0.18   0.02  -0.00
 186   1    -0.04   0.00  -0.00     0.37  -0.04   0.01     0.29  -0.03   0.01
 187   1    -0.00   0.03  -0.00     0.02  -0.25   0.03     0.02  -0.20   0.02
 188   1    -0.00   0.00  -0.00    -0.00  -0.01   0.00    -0.00  -0.01   0.00
 189   1     0.01   0.13  -0.01    -0.02  -0.18   0.02    -0.02  -0.15   0.01
 190   1     0.19   0.02  -0.00    -0.26  -0.03   0.00    -0.22  -0.02   0.00
 191   1     0.09  -0.01  -0.00    -0.09   0.01   0.00    -0.11   0.01   0.00
 192   1     0.01  -0.06   0.01    -0.01   0.06  -0.01    -0.01   0.08  -0.01
 193   1    -0.00  -0.00   0.00    -0.00   0.00  -0.00    -0.00   0.00  -0.00
