193
 energy: -350.235848801397 gnorm: 0.847781875423 xtb: 6.4.1 (bd6e46d)
Co       27.54362900000000    0.04105400000000   -0.01229300000000
C        29.87262000000000   -3.10573900000000    1.31039600000000
C        30.78872700000001   -2.16153200000000    1.26011400000000
C        30.37754800000000   -1.10762800000000    0.33882200000000
C        30.99641800000000    0.01671800000000   -0.00758800000000
C        30.29237600000000    1.23666600000000   -0.37169300000000
C        30.62048700000000    2.19672100000000   -1.21916700000000
C        29.58570700000000    3.21300700000000   -1.23606400000000
C        28.64943900000000    2.83654500000000   -0.38917300000000
N        29.05142900000000    1.60353400000000    0.17464400000000
C        27.38836500000000    3.48154400000000   -0.01002100000000
C        26.29314700000000    2.84676200000000    0.34073900000000
C        25.21952200000000    3.16471700000000    1.30976700000000
C        24.38195900000000    2.16796400000000    1.23260100000000
C        24.82025600000000    1.16428000000000    0.25214900000000
N        25.92519400000000    1.60313300000000   -0.23214300000000
C        24.20942200000000   -0.08899100000000   -0.16139900000000
C        24.87358200000000   -1.19349700000000   -0.41582400000000
C        24.49973300000000   -2.25643900000000   -1.37335100000000
C        25.44848100000000   -3.15019400000000   -1.28433200000000
C        26.43420400000000   -2.71274400000000   -0.30145400000000
N        26.08115900000000   -1.56693900000000    0.19534300000000
C        27.66509200000000   -3.36881500000000    0.14426700000000
C        28.78813400000000   -2.72295400000000    0.41138800000000
N        29.11673400000000   -1.47551200000000   -0.18701500000000
H        29.93288200000000   -4.01552000000000    1.92794300000000
H        31.70505500000000   -2.20148100000000    1.83816200000000
H        31.54785200000000    2.21351700000000   -1.82031000000000
H        29.60260600000000    4.11769500000000   -1.84868600000000
H        27.34064200000000    4.57634700000000   -0.01379800000000
H        25.16670000000000    4.04344200000000    1.93476000000000
H        23.47032900000000    2.13229400000000    1.84992500000000
H        23.11117100000000   -0.08608000000000   -0.26067000000000
H        23.63087800000000   -2.30890400000000   -2.02230100000000
H        25.44563500000000   -4.06650300000000   -1.88309100000000
H        27.62961000000000   -4.46461600000000    0.25619200000000
Co       84.12936100000000   -0.00632200000000   -0.01672600000000
C        81.80037000000000    2.84047000000000    1.86677900000000
C        80.88426300000000    1.92198000000000    1.64220500000000
C        81.29544199999999    1.05728300000000    0.54139100000000
C        80.67657199999999    0.01671800000000   -0.00758800000000
C        81.38061400000001   -1.11450700000000   -0.59169100000000
C        81.05250300000000   -1.90067800000000   -1.60255700000000
C        82.08728300000000   -2.89618800000000   -1.80769800000000
C        83.02355100000000   -2.68337100000000   -0.90566800000000
N        82.62156100000000   -1.57636000000000   -0.12289600000000
C        84.28462500000001   -3.38751200000000   -0.65275400000000
C        85.37984299999999   -2.82882000000000   -0.19032100000000
C        86.45346800000000   -3.32102500000000    0.70290100000000
C        87.29103100000002   -2.32725800000000    0.81198600000000
C        86.85273400000001   -1.15910900000000    0.03475100000000
N        85.74779500000000   -1.50050100000000   -0.52254800000000
C        87.46356800000000    0.14912600000000   -0.13911900000000
C        86.79940800000001    1.28165900000000   -0.18422500000000
C        87.17325700000001    2.50378500000000   -0.92794000000000
C        86.22450900000000    3.36551200000000   -0.67466100000000
C        85.23878499999999    2.75331800000000    0.21000200000000
N        85.59183100000000    1.53523900000000    0.48561200000000
C        84.00789800000000    3.31531200000000    0.76969700000000
C        82.88485600000000    2.63110700000000    0.91236400000000
N        82.55625600000000    1.51633200000000    0.09293000000000
H        81.74010800000001    3.61989400000000    2.64238300000000
H        79.96793500000000    1.85400000000000    2.21763100000000
H        80.12513800000001   -1.80566200000000   -2.19638200000000
H        82.07038400000000   -3.67152200000000   -2.57751800000000
H        84.33234800000000   -4.46261000000000   -0.85956800000000
H        86.50629000000001   -4.30044200000000    1.15402800000000
H        88.20266100000001   -2.40673000000000    1.42521200000000
H        88.56181900000000    0.16468200000000   -0.23720600000000
H        88.04211200000000    2.67572900000000   -1.55589200000000
H        86.22735500000000    4.37699300000000   -1.09303900000000
H        84.04338000000000    4.37132900000000    1.08296600000000
C        33.89112200000001    0.01468300000000   -0.00870000000000
C        35.09909900000000    0.02213700000000   -0.00700500000000
C        36.51786700000000    0.02283400000000   -0.00186800000000
C        37.73338300000001    0.01468300000000   -0.00870000000000
C        47.24127300000000    0.01468300000000   -0.00870000000000
C        48.44924900000000    0.02213700000000   -0.00700500000000
C        49.86801700000001    0.02283400000000   -0.00186800000000
C        51.08353400000000    0.01468300000000   -0.00870000000000
C        60.59142300000000    0.01468300000000   -0.00870000000000
C        61.79940000000001    0.02213700000000   -0.00700500000000
C        63.21816800000000    0.02283400000000   -0.00186800000000
C        64.43368400000000    0.01468300000000   -0.00870000000000
C        73.94157300000001    0.01468300000000   -0.00870000000000
C        75.14955000000000    0.02213700000000   -0.00700500000000
C        76.56831800000002    0.02283400000000   -0.00186800000000
C        77.78383500000000    0.01468300000000   -0.00870000000000
Co       42.52196400000000    0.03481800000000    0.00343900000000
C        40.24215400000000   -3.22662900000000   -0.90622700000000
C        39.28594400000001   -2.32727900000000   -1.00825300000000
C        39.67831900000000   -1.16497400000000   -0.20573700000000
C        39.04320200000000   -0.01370100000000    0.00652900000000
C        39.72865900000001    1.26089800000000    0.23275800000000
C        39.39336900000000    2.33949800000000    0.93699800000000
C        40.41791000000000    3.35881500000000    0.84641700000000
C        41.36850700000000    2.86189000000000    0.07305200000000
N        40.99151300000000    1.54528500000000   -0.34309100000000
C        42.61564700000001    3.47359200000000   -0.34381300000000
C        43.71719900000000    2.80633500000000   -0.67558500000000
C        44.71074500000000    3.05831900000000   -1.70975500000000
C        45.60462800000001    2.09746000000000   -1.60827100000000
C        45.22493000000000    1.18557600000000   -0.50429400000000
N        44.13001500000000    1.63489500000000    0.00307300000000
C        45.88213700000000   -0.01370100000000    0.00652900000000
C        45.25872600000000   -1.08288300000000    0.46804500000000
C        45.63743800000000   -2.01499900000000    1.54352100000000
C        44.69677000000000   -2.92914500000000    1.62938700000000
C        43.68846800000000   -2.63336600000000    0.63196000000000
N        44.02624300000001   -1.57998800000000   -0.01733500000000
C        42.43607500000000   -3.34037300000000    0.30076700000000
C        41.32219800000000   -2.74367600000000   -0.04657500000000
N        40.94008600000000   -1.46091900000000    0.37110800000000
H        40.24249800000000   -4.21770300000000   -1.39746100000000
H        38.37741000000000   -2.44897300000000   -1.58940100000000
H        38.46851700000000    2.45785000000000    1.51392400000000
H        40.44520500000000    4.34797900000000    1.30306700000000
H        42.70158700000000    4.57097000000000   -0.40583600000000
H        44.74341700000000    3.86453500000000   -2.43657900000000
H        46.49769000000000    1.98449200000000   -2.24204500000000
H        46.55218900000001   -1.94059200000000    2.15369100000000
H        44.71581600000000   -3.74275300000000    2.33765400000000
H        42.47456000000000   -4.44033200000000    0.35980300000000
Co       55.87211500000000    0.03481800000000    0.00343900000000
C        53.59230400000000   -3.22662900000000   -0.90622700000000
C        52.63609500000000   -2.32727900000000   -1.00825300000000
C        53.02846900000000   -1.16497400000000   -0.20573700000000
C        52.39335300000000   -0.01370100000000    0.00652900000000
C        53.07881000000000    1.26089800000000    0.23275800000000
C        52.74351900000001    2.33949800000000    0.93699800000000
C        53.76806100000000    3.35881500000000    0.84641700000000
C        54.71865800000000    2.86189000000000    0.07305200000000
N        54.34166400000000    1.54528500000000   -0.34309100000000
C        55.96579700000000    3.47359200000000   -0.34381300000000
C        57.06734900000000    2.80633500000000   -0.67558500000000
C        58.06089600000000    3.05831900000000   -1.70975500000000
C        58.95477900000000    2.09746000000000   -1.60827100000000
C        58.57508100000000    1.18557600000000   -0.50429400000000
N        57.48016500000000    1.63489500000000    0.00307300000000
C        59.23228800000000   -0.01370100000000    0.00652900000000
C        58.60887600000000   -1.08288300000000    0.46804500000000
C        58.98758900000000   -2.01499900000000    1.54352100000000
C        58.04692000000001   -2.92914500000000    1.62938700000000
C        57.03861900000000   -2.63336600000000    0.63196000000000
N        57.37639400000000   -1.57998800000000   -0.01733500000000
C        55.78622600000000   -3.34037300000000    0.30076700000000
C        54.67234900000000   -2.74367600000000   -0.04657500000000
N        54.29023700000000   -1.46091900000000    0.37110800000000
H        53.59264900000001   -4.21770300000000   -1.39746100000000
H        51.72756000000000   -2.44897300000000   -1.58940100000000
H        51.81866700000000    2.45785000000000    1.51392400000000
H        53.79535500000000    4.34797900000000    1.30306700000000
H        56.05173700000000    4.57097000000000   -0.40583600000000
H        58.09356800000000    3.86453500000000   -2.43657900000000
H        59.84784000000000    1.98449200000000   -2.24204500000000
H        59.90233900000000   -1.94059200000000    2.15369100000000
H        58.06596700000000   -3.74275300000000    2.33765400000000
H        55.82471000000000   -4.44033200000000    0.35980300000000
Co       69.22226499999999    0.03481800000000    0.00343900000000
C        66.94245500000000   -3.22662900000000   -0.90622700000000
C        65.98624500000000   -2.32727900000000   -1.00825300000000
C        66.37861900000000   -1.16497400000000   -0.20573700000000
C        65.74350300000000   -0.01370100000000    0.00652900000000
C        66.42896000000000    1.26089800000000    0.23275800000000
C        66.09367000000000    2.33949800000000    0.93699800000000
C        67.11821100000000    3.35881500000000    0.84641700000000
C        68.06880800000000    2.86189000000000    0.07305200000000
N        67.69181399999999    1.54528500000000   -0.34309100000000
C        69.31594800000001    3.47359200000000   -0.34381300000000
C        70.41750000000000    2.80633500000000   -0.67558500000000
C        71.41104600000000    3.05831900000000   -1.70975500000000
C        72.30492900000002    2.09746000000000   -1.60827100000000
C        71.92523100000000    1.18557600000000   -0.50429400000000
N        70.83031600000000    1.63489500000000    0.00307300000000
C        72.58243800000000   -0.01370100000000    0.00652900000000
C        71.95902700000002   -1.08288300000000    0.46804500000000
C        72.33773900000001   -2.01499900000000    1.54352100000000
C        71.39707100000001   -2.92914500000000    1.62938700000000
C        70.38876900000000   -2.63336600000000    0.63196000000000
N        70.72654400000000   -1.57998800000000   -0.01733500000000
C        69.13637600000001   -3.34037300000000    0.30076700000000
C        68.02249900000000   -2.74367600000000   -0.04657500000000
N        67.64038700000000   -1.46091900000000    0.37110800000000
H        66.94279899999999   -4.21770300000000   -1.39746100000000
H        65.07771099999999   -2.44897300000000   -1.58940100000000
H        65.16881800000000    2.45785000000000    1.51392400000000
H        67.14550600000000    4.34797900000000    1.30306700000000
H        69.40188800000001    4.57097000000000   -0.40583600000000
H        71.44371800000000    3.86453500000000   -2.43657900000000
H        73.19799100000000    1.98449200000000   -2.24204500000000
H        73.25248900000000   -1.94059200000000    2.15369100000000
H        71.41611700000000   -3.74275300000000    2.33765400000000
H        69.17486100000001   -4.44033200000000    0.35980300000000
193
 energy: -350.567080364659 gnorm: 0.481623321042 xtb: 6.4.1 (bd6e46d)
Co       27.55452555655276    0.03847097500776   -0.01165157824210
C        29.87299807322458   -3.11434222795223    1.30194384082922
C        30.80285099689723   -2.16078095052623    1.25667378666478
C        30.37231166563500   -1.10994752135992    0.34421307782770
C        30.97551050446269    0.03739104377211   -0.00901742482461
C        30.27899384341906    1.23084325808698   -0.36347345688658
C        30.63200714043574    2.22439752244904   -1.23640168334014
C        29.61576768702738    3.21480207955611   -1.24895853564024
C        28.64226217334156    2.81183553634749   -0.38175637619368
N        29.02080332503466    1.57602975545707    0.17268039196430
C        27.40725796488367    3.48010224823325   -0.01061040199529
C        26.28344132539925    2.83042018261927    0.34124055940631
C        25.22074892790795    3.17225901346492    1.29323099026041
C        24.35669578660200    2.16078703151689    1.23506935002215
C        24.81578699400332    1.16377552064272    0.26806557916958
N        25.96505877560763    1.57673100102196   -0.21124904730129
C        24.19767203354688   -0.06746662504115   -0.15472861578100
C        24.87833611362633   -1.19655212979554   -0.42072634510436
C        24.49164136145757   -2.25604848549552   -1.35983967135400
C        25.45558695613951   -3.17103540590311   -1.28111059996239
C        26.44472640650573   -2.72079324808349   -0.30906261062036
N        26.09853406552124   -1.53727649303278    0.16784000581632
C        27.64709068140860   -3.37489532055551    0.13680307620495
C        28.79335693280508   -2.70611375607474    0.41409098827205
N        29.10266591204650   -1.46300607032351   -0.15705095585498
H        29.92487410129202   -4.01018888893608    1.91990060137839
H        31.70948454250799   -2.19251985282508    1.83540342131460
H        31.54534755115767    2.22194441668613   -1.82179737447660
H        29.60928545826892    4.11422642753288   -1.84962289627248
H        27.35589636925154    4.57194585870440   -0.00752458305018
H        25.17337542055765    4.04181210978928    1.92858771127161
H        23.46608235228956    2.12358566859559    1.84865861987752
H        23.11256214261953   -0.07820379557136   -0.26569310186210
H        23.63287400213468   -2.29999703974698   -2.01489333585581
H        25.45598687103118   -4.07029890881498   -1.87950916959014
H        27.62523387128969   -4.46040891495108    0.25614606987595
Co       84.11847028178130   -0.00388824522018   -0.01562361849009
C        81.79999965053860    2.85048929412055    1.86007285598560
C        80.87015564221541    1.92188016344875    1.63868180182500
C        81.30067370866159    1.05856030657309    0.54712466731277
C        80.69737902821545   -0.00336590411014   -0.01270240089841
C        81.39400126066712   -1.11031803046511   -0.58253916995138
C        81.04098871754449   -1.92467134366555   -1.62459964960104
C        82.05723641270089   -2.89556644286540   -1.82069124769586
C        83.03073160745228   -2.66047352198232   -0.89380732057144
N        82.65216861995951   -1.54896791854051   -0.11974112900643
C        84.26573041490433   -3.38599217883493   -0.65306667528192
C        85.38954907511557   -2.81285068903949   -0.18679267852135
C        86.45223749866942   -3.32536581856098    0.68525085833736
C        87.31629335493389   -2.32065934479482    0.81574132483569
C        86.85720247994627   -1.16156715740248    0.05048359892234
N        85.70793403294287   -1.47844334073284   -0.49712240791805
C        87.47531532744699    0.12673697276403   -0.13655562334783
C        86.79464911162459    1.28557131653838   -0.18847534177080
C        87.18134632942835    2.50089521458982   -0.91473611541828
C        86.21740363699807    3.38539499865949   -0.66762872511377
C        85.22826147566609    2.76263603280141    0.20402036879148
N        85.57446240859743    1.51119685859286    0.45309113982906
C        84.02589962302036    3.32267318728041    0.76348840083625
C        82.87962837983251    2.61405297972844    0.91188761405005
N        82.57032150915282    1.49847583249917    0.12006746070434
H        81.74811354203865    3.61614964858726    2.63349117468565
H        79.96350763854895    1.84572211707504    2.21325776948227
H        80.12764865616323   -1.81365317948144   -2.19941184924124
H        82.06371256006992   -3.66794491635876   -2.57780359577286
H        84.31709900707227   -4.45945714733897   -0.85259270906375
H        86.49961567750624   -4.29769753776494    1.14826498504014
H        88.20690942214610   -2.39793791935572    1.42558323775866
H        88.56042716548562    0.15787474398541   -0.24360252445153
H        88.04011572288803    2.66560258926960   -1.55026545390028
H        86.21700207400605    4.38005979565877   -1.08881473576454
H        84.04775337463091    4.36720485317295    1.08213909570833
C        33.88035038530249    0.01498421459336   -0.00740181789117
C        35.10227751304176    0.02235591937303   -0.00711060502486
C        36.48874303288330    0.02359087413907   -0.00200716613153
C        37.70721828756505    0.02301576352348   -0.01135441155618
C        47.25802103611775    0.02197437176899   -0.00568190809256
C        48.47291010630418    0.02279180028869   -0.00544076071013
C        49.84311372680669    0.02345061282412   -0.00250026881523
C        51.05928554811842    0.02283111043204   -0.01237673368764
C        60.60808001900446    0.02200396577193   -0.00547877146187
C        61.82310744077069    0.02281222957888   -0.00535743760813
C        63.19319370202666    0.02344674217388   -0.00252125643088
C        64.40939226971226    0.02277334380423   -0.01248656683842
C        73.96114404479600    0.02230721522242   -0.00530683031230
C        75.17811717166687    0.02266687133850   -0.00580569158630
C        76.56759411354537    0.02213508277841   -0.00219778306373
C        77.78986549163032    0.01423075624777   -0.00816829259761
Co       42.51280235208534    0.03625883281955    0.00299065068499
C        40.24359345414062   -3.24451790707436   -0.89910856589179
C        39.28044518248813   -2.32620576149843   -0.99945613535808
C        39.70643443003676   -1.17929160585983   -0.20910670678257
C        39.05989679420944    0.00569005159930    0.00542494166853
C        39.75924704352173    1.26387875948417    0.22949023016551
C        39.38485556439506    2.36562862151617    0.94759169857441
C        40.39373177860255    3.36021932839639    0.85336697331792
C        41.38004702787840    2.84088705669410    0.06812395115837
N        41.02274509087349    1.52558069727606   -0.32690526991065
C        42.60107541272080    3.47334140120461   -0.34517884870988
C        43.72516496157369    2.79366898828493   -0.67602263562697
C        44.71700203080426    3.06570371509906   -1.69697734932172
C        45.62501023071618    2.08605417425606   -1.60632121396078
C        45.22460594104768    1.18404808695090   -0.52074491953251
N        44.08998263531488    1.61047407448604   -0.01608277273981
C        45.88528128488461    0.00333869300135   -0.00251229434048
C        45.24164900415244   -1.09519779283058    0.47596272041149
C        45.64913921937063   -2.01382030656342    1.53327530232235
C        44.69277895737803   -2.94529184221445    1.62796717815470
C        43.67657462331789   -2.63993781843818    0.64064552158832
N        44.00427467511018   -1.53951945328367   -0.00356643917566
C        42.45652166438507   -3.34764902189959    0.31034461950931
C        41.31121168894452   -2.73055463455091   -0.05405815936983
N        40.96039215563927   -1.44256071891956    0.33671591249478
H        40.24735648512353   -4.21436068879775   -1.39351499960957
H        38.37851255957324   -2.43908518443445   -1.58452336331195
H        38.46839633400589    2.46177641927763    1.51487778385915
H        40.43478495104733    4.34216858136143    1.30510274898192
H        42.68509181553495    4.56500212680838   -0.41124332571772
H        44.73649809385090    3.86276721535168   -2.42848940088952
H        46.49821976876908    1.97812760851591   -2.23871049830928
H        46.54665832612744   -1.93558989115034    2.14543386657195
H        44.70865757095142   -3.74855805683592    2.33801603763271
H        42.48030814694179   -4.43778337777844    0.35765178245443
Co       55.86255325054535    0.03622484161085    0.00300597559031
C        53.59319688941716   -3.24451893862488   -0.89925024077907
C        52.63029873515627   -2.32693014527461   -0.99908213543230
C        53.05665688622658   -1.17908089822652   -0.20813320888624
C        52.41150626222188    0.00527589964487    0.00529237271281
C        53.10966595442237    1.26427245003388    0.22939090824514
C        52.73504025071904    2.36579328232098    0.94766932465348
C        53.74366647854494    3.36024783797715    0.85334136843710
C        54.73033092556085    2.84066547767797    0.06796785353587
N        54.37304829937688    1.52557941128979   -0.32673472507062
C        55.95107137363634    3.47317635843468   -0.34499557564312
C        57.07543090224463    2.79348645446100   -0.67609072531335
C        58.06712347142897    3.06572952219475   -1.69703797405268
C        58.97518386614243    2.08604949168890   -1.60639725514849
C        58.57449904202333    1.18423409316640   -0.52087975160256
N        57.44023054011370    1.61048495014693   -0.01639308409382
C        59.23541057728335    0.00311924374616   -0.00236730979228
C        58.59191280056469   -1.09525227560954    0.47584730870680
C        58.99947717473088   -2.01396743507154    1.53332519671179
C        58.04308511717032   -2.94521070503017    1.62810420398194
C        57.02692718695370   -2.63935235733622    0.64075338570213
N        57.35445522580697   -1.53977913696269   -0.00341516572334
C        55.80627673503054   -3.34754697496951    0.30998682293183
C        54.66185249203646   -2.73030389896281   -0.05391896060380
N        54.31117175015254   -1.44243708864748    0.33663535174767
H        53.59739547675368   -4.21435308490169   -1.39361330875946
H        51.72865839015969   -2.43922065872888   -1.58468502283806
H        51.81854010384965    2.46185860563053    1.51498865529389
H        53.78483507589637    4.34222658805053    1.30501931018736
H        56.03523443014090    4.56493782973242   -0.41107427671434
H        58.08665268776642    3.86279468420988   -2.42849785739354
H        59.84838941533705    1.97813569188561   -2.23869969405124
H        59.89687508916669   -1.93562263344108    2.14547315598988
H        58.05880510543309   -3.74852452143302    2.33805850921408
H        55.83042446151649   -4.43771433913288    0.35736105074847
Co       69.21255490684383    0.03615567815629    0.00289632331604
C        66.94324131276527   -3.24456671999378   -0.89914646348597
C        65.98053919389845   -2.32699560346583   -0.99905962019969
C        66.40674963083444   -1.17889613131797   -0.20809262471261
C        65.76153977168867    0.00518392149817    0.00521797200498
C        66.45954864406481    1.26436666170653    0.22953107382661
C        66.08517823408746    2.36557922550863    0.94762600526075
C        67.09401062838450    3.36017260527103    0.85334113600672
C        68.08053769786213    2.84083852417931    0.06802808173868
N        67.72322983599233    1.52562852313778   -0.32676388250731
C        69.30130649858746    3.47324063968640   -0.34501878884553
C        70.42567666772464    2.79371550120939   -0.67603753255123
C        71.41724875499946    3.06582484403875   -1.69690372435893
C        72.32516485772403    2.08584760923468   -1.60658394841851
C        71.92458833884457    1.18369310103291   -0.52158564214629
N        70.79092588543462    1.61031830777417   -0.01627832514095
C        72.58712632889782    0.00275720653136   -0.00221751647977
C        71.94266862132915   -1.09486075415174    0.47627062997008
C        72.34960747473558   -2.01356307325166    1.53316894214765
C        71.39289029581163   -2.94499762824464    1.62801717424789
C        70.37751184711418   -2.63921552768024    0.64108727992175
N        70.70463222426676   -1.53968022497997   -0.00309226958714
C        69.15595141172051   -3.34778514178718    0.30970876055207
C        68.01219434666042   -2.73076314215586   -0.05359267780199
N        67.66145758516339   -1.44211605490050    0.33682091106455
H        66.94751724610951   -4.21435483244332   -1.39362129283168
H        65.07885828490662   -2.43921338895828   -1.58471429055509
H        65.16869166978310    2.46180704299600    1.51498405911546
H        67.13500977744665    4.34222711250497    1.30496720617844
H        69.38535760016701    4.56497296239104   -0.41121850182768
H        71.43679294949395    3.86282332826929   -2.42847338773505
H        73.19853252103648    1.97811246503083   -2.23861982991686
H        73.24704976388134   -1.93562630575667    2.14531174978181
H        71.40884900035563   -3.74845879573849    2.33796202161155
H        69.18057930858058   -4.43783708431799    0.35690010240906
193
 energy: -350.774950888285 gnorm: 0.219275312554 xtb: 6.4.1 (bd6e46d)
Co       27.56366705668084    0.03794756684804   -0.00943874879588
C        29.87114777059639   -3.11897132052241    1.29019448956356
C        30.81487752239729   -2.15919062644153    1.25056312077339
C        30.36307996011312   -1.11018429014287    0.35450422324712
C        30.94305424739526    0.06226176503683   -0.01152622647411
C        30.26341769928450    1.22162538127002   -0.35940130303299
C        30.63776426255742    2.25270934141855   -1.24633354823670
C        29.64759305594798    3.21185820567397   -1.25126696655538
C        28.63344674627754    2.78323247919190   -0.37361131525487
N        28.98709289351593    1.54616866326310    0.15419615059427
C        27.42916452451305    3.47172818282360   -0.01191997520875
C        26.28212582399648    2.80509512986525    0.34807496867718
C        25.22657097589040    3.17326094071145    1.27058877877036
C        24.33475232242826    2.15679816712649    1.22853003860676
C        24.81212370387179    1.16128052876503    0.28638247998745
N        26.01188327019494    1.54471160784328   -0.17703194538839
C        24.19156699912597   -0.04602997928172   -0.14608294657728
C        24.88915628004388   -1.19340994583743   -0.43292190163254
C        24.48928049040099   -2.25332100876928   -1.34215064201102
C        25.45949042175262   -3.18868076014653   -1.27043783489604
C        26.45648300408941   -2.72623072583278   -0.31842135603631
N        26.12037587343766   -1.49718881722525    0.12730616865730
C        27.62953186260271   -3.37509455631527    0.12824830653928
C        28.79338235747734   -2.68295584806664    0.42056470907012
N        29.08391181952393   -1.44864963654550   -0.11914243658735
H        29.91521656986032   -4.00431728098700    1.90762889742835
H        31.71581868159753   -2.18189852513198    1.82922305339714
H        31.54255708714020    2.22900213399570   -1.82033396388308
H        29.61309852383743    4.10874104676059   -1.84543380213660
H        27.37241691305072    4.56106537341544   -0.00632598363763
H        25.18051616431893    4.03674767116912    1.91640377831941
H        23.46097030095109    2.11390553462863    1.84358340308749
H        23.11572115945782   -0.07260808685940   -0.26529396387410
H        23.63702685260266   -2.29039189803232   -2.00277799847394
H        25.46717892061797   -4.07510753644958   -1.87198235005643
H        27.62472162203710   -4.45345440065937    0.25158065870368
Co       84.10935025769894   -0.00379577242999   -0.01336481166326
C        81.80187357516549    2.85723676489782    1.84936470716130
C        80.85813792352666    1.92146293894545    1.63233666841976
C        81.30992317379594    1.05687806547678    0.55727259191890
C        80.72951966826187   -0.02736276654958   -0.01971846886282
C        81.40961991779098   -1.10200961730222   -0.57684689182190
C        81.03523261513865   -1.95065967414583   -1.63956461459005
C        82.02544749914394   -2.89227740759865   -1.82240191686512
C        83.03955157219087   -2.63396490451923   -0.88048722139395
N        82.68586423305410   -1.51618757295235   -0.13241027750865
C        84.24381026356438   -3.37756141211834   -0.65277696251531
C        85.39086084344837   -2.78924383053628   -0.17535122599461
C        86.44640148337135   -3.32213790923601    0.66281896491872
C        87.33823490806938   -2.31549967851385    0.81006105622221
C        86.86089693361566   -1.16251694061456    0.06894821836231
N        85.66110866256388   -1.45333978224173   -0.45755968605800
C        87.48143763549537    0.10406415993479   -0.13204587745082
C        86.78384570546639    1.28474533602420   -0.20106794631523
C        87.18370264402594    2.49491244677865   -0.89788369869395
C        86.21348951384238    3.40074715411972   -0.65388846768164
C        85.21650276436918    2.76973767705943    0.19580765235252
N        85.55260996527458    1.47932095659090    0.40579460235532