      -----------------------------------------------------------      
     |                   =====================                   |     
     |                           x T B                           |     
     |                   =====================                   |     
     |                         S. Grimme                         |     
     |          Mulliken Center for Theoretical Chemistry        |     
     |                    University of Bonn                     |     
      -----------------------------------------------------------      

   * xtb version 6.4.1 (bd6e46d) compiled by 'conda@4901f00b25ba' on 2021-06-10

   xtb is free software: you can redistribute it and/or modify it under
   the terms of the GNU Lesser General Public License as published by
   the Free Software Foundation, either version 3 of the License, or
   (at your option) any later version.
   
   xtb is distributed in the hope that it will be useful,
   but WITHOUT ANY WARRANTY; without even the implied warranty of
   MERCHANTABILITY or FITNESS FOR A PARTICULAR PURPOSE.  See the
   GNU Lesser General Public License for more details.
   
   Cite this work as:
   * C. Bannwarth, E. Caldeweyher, S. Ehlert, A. Hansen, P. Pracht,
     J. Seibert, S. Spicher, S. Grimme, WIREs Comput. Mol. Sci., 2020, 11,
     e01493. DOI: 10.1002/wcms.1493
   
   for GFN2-xTB:
   * C. Bannwarth, S. Ehlert and S. Grimme., J. Chem. Theory Comput., 2019,
     15, 1652-1671. DOI: 10.1021/acs.jctc.8b01176
   for GFN1-xTB:
   * S. Grimme, C. Bannwarth, P. Shushkov, J. Chem. Theory Comput., 2017,
     13, 1989-2009. DOI: 10.1021/acs.jctc.7b00118
   for GFN0-xTB:
   * P. Pracht, E. Caldeweyher, S. Ehlert, S. Grimme, ChemRxiv, 2019, preprint.
     DOI: 10.26434/chemrxiv.8326202.v1
   for GFN-FF:
   * S. Spicher and S. Grimme, Angew. Chem. Int. Ed., 2020, 59, 15665-15673.
     DOI: 10.1002/anie.202004239
   
   for DFT-D4:
   * E. Caldeweyher, C. Bannwarth and S. Grimme, J. Chem. Phys., 2017,
     147, 034112. DOI: 10.1063/1.4993215
   * E. Caldeweyher, S. Ehlert, A. Hansen, H. Neugebauer, S. Spicher,
     C. Bannwarth and S. Grimme, J. Chem. Phys., 2019, 150, 154122.
     DOI: 10.1063/1.5090222
   * E. Caldeweyher, J.-M. Mewes, S. Ehlert and S. Grimme, Phys. Chem. Chem. Phys.
     2020, 22, 8499-8512. DOI: 10.1039/D0CP00502A
   
   for sTDA-xTB:
   * S. Grimme and C. Bannwarth, J. Chem. Phys., 2016, 145, 054103.
     DOI: 10.1063/1.4959605
   
   in the mass-spec context:
   * V. Asgeirsson, C. Bauer and S. Grimme, Chem. Sci., 2017, 8, 4879.
     DOI: 10.1039/c7sc00601b
   * J. Koopman and S. Grimme, ACS Omega 2019, 4, 12, 15120-15133.
     DOI: 10.1021/acsomega.9b02011
   
   for metadynamics refer to:
   * S. Grimme, J. Chem. Theory Comput., 2019, 155, 2847-2862
     DOI: 10.1021/acs.jctc.9b00143
   
   for SPH calculations refer to:
   * S. Spicher and S. Grimme, J. Chem. Theory Comput., 2021, 17, 1701-1714
     DOI: 10.1021/acs.jctc.0c01306
   
   with help from (in alphabetical order)
   P. Atkinson, C. Bannwarth, F. Bohle, G. Brandenburg, E. Caldeweyher
   M. Checinski, S. Dohm, S. Ehlert, S. Ehrlich, I. Gerasimov, J. Koopman
   C. Lavigne, S. Lehtola, F. März, M. Müller, F. Musil, H. Neugebauer
   J. Pisarek, C. Plett, P. Pracht, J. Seibert, P. Shushkov, S. Spicher
   M. Stahn, M. Steiner, T. Strunk, J. Stückrath, T. Rose, and J. Unsleber
   
 * started run on 2021/11/20 at 19:02:36.578     

           -------------------------------------------------
          |                Calculation Setup                |
           -------------------------------------------------

          program call               : /home/jeff/miniconda3/bin/xtb input_structure_1.xyz --gfn 2 --ohess normal --parallel 1 --etemp 300 --chrg 0 --uhf 0 -I det_control.in
          hostname                   : jelfscompute1
          coordinate file            : input_structure_1.xyz
          omp threads                :                     1
          number of atoms            :                   283
          number of electrons        :                   986
          charge                     :                     0
          spin                       :                   0.0
          first test random number   :      0.17327952290770

   ID    Z sym.   atoms
    1   28 Ni     1, 37, 109, 144, 179, 214, 249
    2    6 C      2-9, 11-15, 17-21, 23, 24, 38-45, 47-51, 53-57, 59, 60,
                  73-108, 110-117, 119-123, 125-129, 131, 132, 145-152,
                  154-158, 160-164, 166, 167, 180-187, 189-193, 195-199, 201,
                  202, 215-222, 224-228, 230-234, 236, 237, 250-257, 259-263,
                  265-269, 271, 272
    3    7 N      10, 16, 22, 25, 46, 52, 58, 61, 118, 124, 130, 133, 153,
                  159, 165, 168, 188, 194, 200, 203, 223, 229, 235, 238, 258,
                  264, 270, 273
    4    1 H      26-36, 62-72, 134-143, 169-178, 204-213, 239-248, 274-283

molecular fragmentation (1/2 indicates fragments):
111111111111111111111111111111111111222222222222222222222222222222222222
222222222222222222222222222222222222222222222222222222222222222222222222
222222222222222222222222222222222222222222222222222222222222222222222222
2222222222222222222222222222222222222222222222222222222222222222222
# atoms in fragment 1/2:    36   247
 fragment masses (1/2) :      366.02     2623.48
CMA distance (Bohr)    : 104.692
constraining FC (au)   :  0.0500

           -------------------------------------------------
          |                 G F N 2 - x T B                 |
           -------------------------------------------------

        Reference                      10.1021/acs.jctc.8b01176
      * Hamiltonian:
        H0-scaling (s, p, d)           1.850000    2.230000    2.230000
        zeta-weighting                 0.500000
      * Dispersion:
        s8                             2.700000
        a1                             0.520000
        a2                             5.000000
        s9                             5.000000
      * Repulsion:
        kExp                           1.500000    1.000000
        rExp                           1.000000
      * Coulomb:
        alpha                          2.000000
        third order                    shell-resolved
        anisotropic                    true
        a3                             3.000000
        a5                             4.000000
        cn-shift                       1.200000
        cn-exp                         4.000000
        max-rad                        5.000000


          ...................................................
          :                      SETUP                      :
          :.................................................:
          :  # basis functions                 958          :
          :  # atomic orbitals                 951          :
          :  # shells                          501          :
          :  # electrons                       986          :
          :  max. iterations                   250          :
          :  Hamiltonian                  GFN2-xTB          :
          :  restarted?                      false          :
          :  GBSA solvation                  false          :
          :  PC potential                    false          :
          :  electronic temp.          300.0000000     K    :
          :  accuracy                    1.0000000          :
          :  -> integral cutoff          0.2500000E+02      :
          :  -> integral neglect         0.1000000E-07      :
          :  -> SCF convergence          0.1000000E-05 Eh   :
          :  -> wf. convergence          0.1000000E-03 e    :
          :  Broyden damping             0.4000000          :
          ...................................................

 iter      E             dE          RMSdq      gap      omega  full diag
   1   -535.4293424 -0.535429E+03  0.918E+00    0.66       0.0  T
   2   -516.9350085  0.184943E+02  0.744E+00    0.02       1.0  T
   3   -204.2683173  0.312667E+03  0.148E+01    0.09       1.0  T
   4    -25.4791695  0.178789E+03  0.172E+01    0.02       1.0  T
   5   -419.9127782 -0.394434E+03  0.782E+00    0.01       1.0  T
   6    130.1177577  0.550031E+03  0.169E+01    0.02       1.0  T
   7   -410.8109951 -0.540929E+03  0.906E+00    0.04       1.0  T
   8   -521.4557509 -0.110645E+03  0.511E+00    0.08       1.0  T
   9   -468.1984720  0.532573E+02  0.798E+00    0.02       1.0  T
  10   -411.8114506  0.563870E+02  0.766E+00    0.02       1.0  T
  11   -480.3006407 -0.684892E+02  0.682E+00    0.01       1.0  T
  12   -532.1785987 -0.518780E+02  0.325E+00    0.06       1.0  T
  13   -533.8655588 -0.168696E+01  0.270E+00    0.04       1.0  T
  14   -533.2051438  0.660415E+00  0.344E+00    0.01       1.0  T
  15   -528.8717408  0.433340E+01  0.483E+00    0.11       1.0  T
  16   -527.5324840  0.133926E+01  0.495E+00    0.02       1.0  T
  17   -528.6883346 -0.115585E+01  0.481E+00    0.02       1.0  T
  18   -528.2959463  0.392388E+00  0.483E+00    0.08       1.0  T
  19   -529.5042514 -0.120831E+01  0.471E+00    0.10       1.0  T
  20   -529.1714312  0.332820E+00  0.469E+00    0.16       1.0  T
  21   -529.1693639  0.206730E-02  0.469E+00    0.15       1.0  T
  22   -533.4831256 -0.431376E+01  0.350E+00    0.02       1.0  T
  23   -535.8123584 -0.232923E+01  0.230E+00    0.03       1.0  T
  24   -533.9379358  0.187442E+01  0.276E+00    0.04       1.0  T
  25   -533.3249862  0.612950E+00  0.321E+00    0.00       1.0  T
  26   -531.9523368  0.137265E+01  0.368E+00    0.03       1.0  T
  27   -530.0062655  0.194607E+01  0.431E+00    0.15       1.0  T
  28   -530.1641849 -0.157919E+00  0.427E+00    0.12       1.0  T
  29   -531.0671636 -0.902979E+00  0.398E+00    0.05       1.0  T
  30   -532.9995131 -0.193235E+01  0.340E+00    0.01       1.0  T
  31   -532.9553363  0.441768E-01  0.342E+00    0.01       1.0  T
  32   -533.3925712 -0.437235E+00  0.236E+00    0.04       1.0  T
  33   -534.8903100 -0.149774E+01  0.231E+00    0.00       1.0  T
  34   -534.2893762  0.600934E+00  0.285E+00    0.01       1.0  T
  35   -530.2151972  0.407418E+01  0.421E+00    0.08       1.0  T
  36   -531.4998615 -0.128466E+01  0.393E+00    0.01       1.0  T
  37   -531.9252856 -0.425424E+00  0.366E+00    0.02       1.0  T
  38   -531.2147801  0.710505E+00  0.398E+00    0.07       1.0  T
  39   -532.1365029 -0.921723E+00  0.365E+00    0.02       1.0  T
  40   -534.3994923 -0.226299E+01  0.279E+00    0.01       1.0  T
  41   -531.3001947  0.309930E+01  0.395E+00    0.00       1.0  T
  42   -531.2308156  0.693791E-01  0.397E+00    0.01       1.0  T
  43   -531.2433784 -0.125627E-01  0.397E+00    0.01       1.0  T
  44   -531.7441593 -0.500781E+00  0.382E+00    0.00       1.0  T
  45   -532.2466217 -0.502462E+00  0.365E+00    0.01       1.0  T
  46   -532.4830493 -0.236428E+00  0.360E+00    0.02       1.0  T
  47   -532.3899876  0.930617E-01  0.359E+00    0.03       1.0  T
  48   -532.4414569 -0.514693E-01  0.356E+00    0.03       1.0  T
  49   -533.4499239 -0.100847E+01  0.317E+00    0.02       1.0  T
  50   -534.5986020 -0.114868E+01  0.268E+00    0.03       1.0  T
  51   -534.7768223 -0.178220E+00  0.267E+00    0.05       1.0  T
  52   -532.5713446  0.220548E+01  0.331E+00    0.01       1.0  T
  53   -533.2764064 -0.705062E+00  0.304E+00    0.01       1.0  T
  54   -532.9469170  0.329489E+00  0.315E+00    0.02       1.0  T
  55   -534.6837533 -0.173684E+01  0.239E+00    0.01       1.0  T
  56   -533.5568482  0.112691E+01  0.283E+00    0.00       1.0  T
  57   -534.4934004 -0.936552E+00  0.241E+00    0.00       1.0  T
  58   -534.6858618 -0.192461E+00  0.222E+00    0.02       1.0  T
  59   -535.7249892 -0.103913E+01  0.175E+00    0.01       1.0  T
  60   -535.7919369 -0.669476E-01  0.177E+00    0.01       1.0  T
  61   -536.0348203 -0.242883E+00  0.196E+00    0.00       1.0  T
  62   -536.0247000  0.101203E-01  0.197E+00    0.00       1.0  T
  63   -535.9351175  0.895825E-01  0.192E+00    0.03       1.0  T
  64   -535.7204648  0.214653E+00  0.202E+00    0.04       1.0  T
  65   -535.7205749 -0.110047E-03  0.202E+00    0.04       1.0  T
  66   -535.6844185  0.361564E-01  0.206E+00    0.04       1.0  T
  67   -535.8042858 -0.119867E+00  0.194E+00    0.04       1.0  T
  68   -535.6994561  0.104830E+00  0.198E+00    0.04       1.0  T
  69   -535.6441366  0.553195E-01  0.199E+00    0.04       1.0  T
  70   -535.2636312  0.380505E+00  0.219E+00    0.02       1.0  T
  71   -534.9975900  0.266041E+00  0.242E+00    0.03       1.0  T
  72   -535.0815611 -0.839712E-01  0.237E+00    0.04       1.0  T
  73   -535.1038340 -0.222728E-01  0.236E+00    0.04       1.0  T
  74   -535.6632912 -0.559457E+00  0.213E+00    0.01       1.0  T
  75   -535.7511494 -0.878581E-01  0.208E+00    0.00       1.0  T
  76   -535.6733075  0.778419E-01  0.213E+00    0.01       1.0  T
  77   -535.6767922 -0.348470E-02  0.214E+00    0.01       1.0  T
  78   -535.9368675 -0.260075E+00  0.210E+00    0.00       1.0  T
  79   -531.2361614  0.470071E+01  0.418E+00    0.04       1.0  T
  80   -533.6142096 -0.237805E+01  0.331E+00    0.03       1.0  T
  81   -533.4949340  0.119276E+00  0.336E+00    0.03       1.0  T
  82   -533.5416091 -0.466751E-01  0.334E+00    0.03       1.0  T
  83   -534.9250937 -0.138348E+01  0.276E+00    0.02       1.0  T
  84   -535.1266702 -0.201576E+00  0.267E+00    0.02       1.0  T
  85   -535.2780811 -0.151411E+00  0.263E+00    0.00       1.0  T
  86   -535.2746652  0.341589E-02  0.263E+00    0.01       1.0  T
  87   -535.1277042  0.146961E+00  0.274E+00    0.01       1.0  T
  88   -535.1393533 -0.116490E-01  0.273E+00    0.01       1.0  T
  89   -534.7271239  0.412229E+00  0.295E+00    0.01       1.0  T
  90   -534.4749763  0.252148E+00  0.305E+00    0.00       1.0  T
  91   -534.4086616  0.663146E-01  0.308E+00    0.01       1.0  T
  92   -534.3921008  0.165608E-01  0.309E+00    0.02       1.0  T
  93   -534.4958731 -0.103772E+00  0.305E+00    0.01       1.0  T
  94   -534.3905123  0.105361E+00  0.310E+00    0.00       1.0  T
  95   -535.1053032 -0.714791E+00  0.281E+00    0.02       1.0  T
  96   -535.9529842 -0.847681E+00  0.231E+00    0.02       1.0  T
  97   -535.4873288  0.465655E+00  0.257E+00    0.03       1.0  T
  98   -535.4331918  0.541370E-01  0.260E+00    0.02       1.0  T
  99   -535.5406463 -0.107454E+00  0.263E+00    0.04       1.0  T
 100   -535.4841329  0.565134E-01  0.266E+00    0.04       1.0  T
 101   -535.4881633 -0.403038E-02  0.267E+00    0.04       1.0  T
 102   -535.5243178 -0.361545E-01  0.265E+00    0.03       1.0  T
 103   -535.0886505  0.435667E+00  0.293E+00    0.00       1.0  T
 104   -535.0872871  0.136346E-02  0.293E+00    0.00       1.0  T
 105   -535.3625882 -0.275301E+00  0.274E+00    0.02       1.0  T
 106   -535.2341646  0.128424E+00  0.282E+00    0.01       1.0  T
 107   -535.1868860  0.472786E-01  0.284E+00    0.00       1.0  T
 108   -535.4460176 -0.259132E+00  0.260E+00    0.01       1.0  T
 109   -535.4317877  0.142299E-01  0.259E+00    0.01       1.0  T
 110   -535.4039263  0.278614E-01  0.258E+00    0.01       1.0  T
 111   -535.0598243  0.344102E+00  0.281E+00    0.04       1.0  T
 112   -534.9303825  0.129442E+00  0.288E+00    0.03       1.0  T
 113   -534.7809003  0.149482E+00  0.297E+00    0.02       1.0  T
 114   -534.8439880 -0.630877E-01  0.292E+00    0.02       1.0  T
 115   -534.2900039  0.553984E+00  0.318E+00    0.01       1.0  T
 116   -533.7927782  0.497226E+00  0.341E+00    0.02       1.0  T
 117   -534.6852044 -0.892426E+00  0.297E+00    0.02       1.0  T
 118   -534.9570207 -0.271816E+00  0.277E+00    0.03       1.0  T
 119   -535.1429858 -0.185965E+00  0.266E+00    0.04       1.0  T
 120   -535.4910116 -0.348026E+00  0.243E+00    0.07       1.0  T
 121   -535.5857355 -0.947239E-01  0.237E+00    0.07       1.0  T
 122   -535.5819750  0.376048E-02  0.238E+00    0.07       1.0  T
 123   -535.2267696  0.355205E+00  0.261E+00    0.05       1.0  T
 124   -535.2900735 -0.633040E-01  0.256E+00    0.05       1.0  T
 125   -535.6568485 -0.366775E+00  0.230E+00    0.04       1.0  T
 126   -535.2936062  0.363242E+00  0.256E+00    0.04       1.0  T
 127   -535.1374884  0.156118E+00  0.262E+00    0.00       1.0  T
 128   -535.1218689  0.156195E-01  0.263E+00    0.00       1.0  T
 129   -534.5687832  0.553086E+00  0.293E+00    0.00       1.0  T
 130   -534.5170188  0.517644E-01  0.296E+00    0.00       1.0  T
 131   -534.5127899  0.422892E-02  0.296E+00    0.00       1.0  T
 132   -534.5068560  0.593384E-02  0.296E+00    0.00       1.0  T
 133   -534.5123874 -0.553138E-02  0.295E+00    0.02       1.0  T
 134   -534.5250909 -0.127035E-01  0.293E+00    0.02       1.0  T
 135   -534.3610497  0.164041E+00  0.305E+00    0.00       1.0  T
 136   -534.3678743 -0.682459E-02  0.305E+00    0.00       1.0  T
 137   -534.3681571 -0.282785E-03  0.304E+00    0.00       1.0  T
 138   -534.4755865 -0.107429E+00  0.300E+00    0.01       1.0  T
 139   -534.3300745  0.145512E+00  0.306E+00    0.01       1.0  T
 140   -534.2982709  0.318036E-01  0.307E+00    0.01       1.0  T
 141   -534.4010717 -0.102801E+00  0.302E+00    0.00       1.0  T
 142   -534.5986199 -0.197548E+00  0.292E+00    0.01       1.0  T
 143   -535.3328532 -0.734233E+00  0.251E+00    0.01       1.0  T
 144   -534.6991722  0.633681E+00  0.287E+00    0.01       1.0  T
 145   -535.2105304 -0.511358E+00  0.260E+00    0.03       1.0  T
 146   -535.7796923 -0.569162E+00  0.227E+00    0.02       1.0  T
 147   -536.0046990 -0.225007E+00  0.215E+00    0.04       1.0  T
 148   -535.9133874  0.913115E-01  0.224E+00    0.05       1.0  T
 149   -535.9385651 -0.251776E-01  0.222E+00    0.04       1.0  T
 150   -535.7325910  0.205974E+00  0.238E+00    0.06       1.0  T
 151   -535.7473858 -0.147948E-01  0.237E+00    0.06       1.0  T
 152   -535.8017326 -0.543468E-01  0.233E+00    0.07       1.0  T
 153   -535.8089427 -0.721012E-02  0.232E+00    0.07       1.0  T
 154   -535.8131818 -0.423911E-02  0.232E+00    0.07       1.0  T
 155   -535.8686558 -0.554740E-01  0.228E+00    0.07       1.0  T
 156   -536.0090289 -0.140373E+00  0.216E+00    0.07       1.0  T
 157   -536.1656789 -0.156650E+00  0.201E+00    0.06       1.0  T
 158   -536.2097223 -0.440434E-01  0.193E+00    0.06       1.0  T
 159   -536.2500043 -0.402820E-01  0.190E+00    0.06       1.0  T
 160   -536.4581105 -0.208106E+00  0.178E+00    0.02       1.0  T
 161   -536.4103306  0.477799E-01  0.180E+00    0.03       1.0  T
 162   -536.5994894 -0.189159E+00  0.166E+00    0.01       1.0  T
 163   -536.5651536  0.343358E-01  0.168E+00    0.00       1.0  T
 164   -536.5568873  0.826633E-02  0.166E+00    0.01       1.0  T
 165   -536.6030980 -0.462107E-01  0.162E+00    0.01       1.0  T
 166   -536.3474945  0.255603E+00  0.180E+00    0.03       1.0  T
 167   -536.3423630  0.513154E-02  0.179E+00    0.03       1.0  T
 168   -536.3829353 -0.405724E-01  0.175E+00    0.03       1.0  T
 169   -536.4501178 -0.671825E-01  0.169E+00    0.00       1.0  T
 170   -536.5451520 -0.950342E-01  0.156E+00    0.01       1.0  T
 171   -536.7011107 -0.155959E+00  0.138E+00    0.01       1.0  T
 172   -536.6946581  0.645256E-02  0.138E+00    0.01       1.0  T
 173   -536.7866285 -0.919704E-01  0.121E+00    0.02       1.0  T
 174   -536.8300469 -0.434184E-01  0.112E+00    0.02       1.0  T
 175   -536.8260559  0.399101E-02  0.110E+00    0.02       1.0  T
 176   -537.0116386 -0.185583E+00  0.832E-01    0.07       1.0  T
 177   -536.9980332  0.136054E-01  0.850E-01    0.06       1.0  T
 178   -537.0794912 -0.814580E-01  0.688E-01    0.10       1.0  T
 179   -537.0827639 -0.327266E-02  0.678E-01    0.11       1.0  T
 180   -537.0824192  0.344692E-03  0.679E-01    0.11       1.0  T
 181   -537.0833381 -0.918883E-03  0.676E-01    0.11       1.0  T
 182   -537.0982997 -0.149616E-01  0.628E-01    0.13       1.0  T
 183   -537.0914987  0.680096E-02  0.629E-01    0.12       1.0  T
 184   -537.0564724  0.350263E-01  0.669E-01    0.08       1.0  T
 185   -536.9926966  0.637758E-01  0.774E-01    0.05       1.0  T
 186   -536.9798424  0.128542E-01  0.794E-01    0.05       1.0  T
 187   -536.9696375  0.102049E-01  0.803E-01    0.04       1.0  T
 188   -537.0014764 -0.318389E-01  0.740E-01    0.05       1.0  T
 189   -536.9971431  0.433331E-02  0.741E-01    0.05       1.0  T
 190   -536.9913063  0.583677E-02  0.747E-01    0.05       1.0  T
 191   -536.9971918 -0.588555E-02  0.730E-01    0.05       1.0  T
 192   -537.0080769 -0.108851E-01  0.708E-01    0.06       1.0  T
 193   -537.0572940 -0.492171E-01  0.622E-01    0.08       1.0  T
 194   -537.0573117 -0.176562E-04  0.621E-01    0.08       1.0  T
 195   -537.0689759 -0.116642E-01  0.607E-01    0.09       1.0  T
 196   -537.0668325  0.214344E-02  0.613E-01    0.10       1.0  T
 197   -537.0757037 -0.887122E-02  0.594E-01    0.10       1.0  T
 198   -537.0781915 -0.248782E-02  0.580E-01    0.10       1.0  T
 199   -537.0952146 -0.170231E-01  0.542E-01    0.11       1.0  T
 200   -537.1019662 -0.675162E-02  0.517E-01    0.11       1.0  T
 201   -537.1075785 -0.561227E-02  0.496E-01    0.11       1.0  T
 202   -537.1112016 -0.362311E-02  0.480E-01    0.11       1.0  T
 203   -537.1115109 -0.309301E-03  0.470E-01    0.11       1.0  T
 204   -537.1131056 -0.159466E-02  0.461E-01    0.12       1.0  T
 205   -537.1145116 -0.140608E-02  0.451E-01    0.12       1.0  T
 206   -537.1188019 -0.429022E-02  0.443E-01    0.12       1.0  T
 207   -537.1178192  0.982661E-03  0.417E-01    0.10       1.0  T
 208   -537.1231123 -0.529313E-02  0.416E-01    0.11       1.0  T
 209   -537.1255982 -0.248590E-02  0.405E-01    0.10       1.0  T
 210   -537.1266512 -0.105298E-02  0.395E-01    0.10       1.0  T
 211   -537.1322149 -0.556373E-02  0.384E-01    0.11       1.0  T
 212   -537.1254067  0.680821E-02  0.388E-01    0.09       1.0  T
 213   -537.1309176 -0.551089E-02  0.369E-01    0.10       1.0  T
 214   -537.1260321  0.488557E-02  0.377E-01    0.09       1.0  T
 215   -537.1320684 -0.603634E-02  0.361E-01    0.10       1.0  T
 216   -537.1373761 -0.530767E-02  0.342E-01    0.10       1.0  T
 217   -537.1361939  0.118220E-02  0.339E-01    0.10       1.0  T
 218   -537.1452965 -0.910264E-02  0.310E-01    0.11       1.0  T
 219   -537.1482678 -0.297132E-02  0.292E-01    0.11       1.0  T
 220   -537.1502873 -0.201947E-02  0.281E-01    0.12       1.0  T
 221   -537.1544854 -0.419813E-02  0.261E-01    0.12       1.0  T
 222   -537.1555105 -0.102512E-02  0.255E-01    0.12       1.0  T
 223   -537.1571722 -0.166170E-02  0.248E-01    0.12       1.0  T
 224   -537.1594434 -0.227115E-02  0.234E-01    0.12       1.0  T
 225   -537.1630601 -0.361670E-02  0.213E-01    0.12       1.0  T
 226   -537.1658842 -0.282408E-02  0.195E-01    0.12       1.0  T
 227   -537.1683896 -0.250542E-02  0.178E-01    0.11       1.0  T
 228   -537.1698825 -0.149294E-02  0.167E-01    0.11       1.0  T
 229   -537.1708144 -0.931900E-03  0.158E-01    0.11       1.0  T
 230   -537.1730091 -0.219469E-02  0.136E-01    0.11       1.0  T
 231   -537.1729028  0.106332E-03  0.140E-01    0.11       1.0  T
 232   -537.1747757 -0.187291E-02  0.115E-01    0.11       1.0  T
 233   -537.1751018 -0.326153E-03  0.114E-01    0.11       1.0  T
 234   -537.1758058 -0.703965E-03  0.103E-01    0.12       1.0  T
 235   -537.1765451 -0.739253E-03  0.935E-02    0.12       1.0  T
 236   -537.1770546 -0.509581E-03  0.855E-02    0.12       1.0  T
 237   -537.1773648 -0.310192E-03  0.813E-02    0.12       1.0  T
 238   -537.1776888 -0.323935E-03  0.765E-02    0.12       1.0  T
 239   -537.1778952 -0.206385E-03  0.739E-02    0.12       1.0  T
 240   -537.1780328 -0.137592E-03  0.723E-02    0.12       1.0  T
 241   -537.1781669 -0.134102E-03  0.697E-02    0.12       1.0  T
 242   -537.1783196 -0.152770E-03  0.677E-02    0.12       1.0  T
 243   -537.1785124 -0.192784E-03  0.647E-02    0.12       1.0  T
 244   -537.1786780 -0.165551E-03  0.621E-02    0.12       1.0  T
 245   -537.1787240 -0.460461E-04  0.608E-02    0.12       1.0  T
 246   -537.1788044 -0.803521E-04  0.589E-02    0.12       1.0  T
 247   -537.1788441 -0.397454E-04  0.573E-02    0.12       1.0  T
 248   -537.1788942 -0.500812E-04  0.567E-02    0.12       1.0  T
 249   -537.1789173 -0.230670E-04  0.568E-02    0.12       1.0  T
 250   -537.1789580 -0.407944E-04  0.563E-02    0.12       1.0  T

   *** convergence criteria cannot be satisfied within 250 iterations ***

         #    Occupation            Energy/Eh            Energy/eV
      -------------------------------------------------------------
         1        2.0000           -0.6898882             -18.7728
       ...           ...                  ...                  ...
       487        1.9970           -0.3520660              -9.5802
       488        1.9948           -0.3515208              -9.5654
       489        1.9945           -0.3514741              -9.5641
       490        1.9774           -0.3501260              -9.5274
       491        1.9655           -0.3497155              -9.5162
       492        1.9045           -0.3487193              -9.4891
       493        1.8140           -0.3480399              -9.4706 (HOMO)
       494        0.1871           -0.3437186              -9.3531 (LUMO)
       495        0.1732           -0.3436381              -9.3509
       496        0.0000           -0.3340778              -9.0907
       497        0.0000           -0.3330999              -9.0641
       498        0.0000           -0.3317602              -9.0277
       ...           ...                  ...                  ...
       951                          2.2638909              61.6036
      -------------------------------------------------------------
                  HL-Gap            0.0043213 Eh            0.1176 eV
             Fermi-level           -0.3458761 Eh           -9.4118 eV

 SCC (total)                   0 d,  0 h,  1 min, 11.982 sec
 SCC setup                      ...        0 min,  0.015 sec (  0.021%)
 Dispersion                     ...        0 min,  0.030 sec (  0.041%)
 classical contributions        ...        0 min,  0.002 sec (  0.003%)
 integral evaluation            ...        0 min,  0.230 sec (  0.319%)
 iterations                     ...        1 min, 11.161 sec ( 98.860%)
 molecular gradient             ...        0 min,  0.505 sec (  0.702%)
 printout                       ...        0 min,  0.038 sec (  0.053%)

########################################################################
[ERROR] Program stopped due to fatal error
-3- Single point calculation terminated
-2- xtb_calculator_singlepoint: Electronic structure method terminated
-1- scf: Self consistent charge iterator did not converge
########################################################################
