      -----------------------------------------------------------      
     |                   =====================                   |     
     |                           x T B                           |     
     |                   =====================                   |     
     |                         S. Grimme                         |     
     |          Mulliken Center for Theoretical Chemistry        |     
     |                    University of Bonn                     |     
      -----------------------------------------------------------      

   * xtb version 6.4.1 (bd6e46d) compiled by 'conda@4901f00b25ba' on 2021-06-10

   xtb is free software: you can redistribute it and/or modify it under
   the terms of the GNU Lesser General Public License as published by
   the Free Software Foundation, either version 3 of the License, or
   (at your option) any later version.
   
   xtb is distributed in the hope that it will be useful,
   but WITHOUT ANY WARRANTY; without even the implied warranty of
   MERCHANTABILITY or FITNESS FOR A PARTICULAR PURPOSE.  See the
   GNU Lesser General Public License for more details.
   
   Cite this work as:
   * C. Bannwarth, E. Caldeweyher, S. Ehlert, A. Hansen, P. Pracht,
     J. Seibert, S. Spicher, S. Grimme, WIREs Comput. Mol. Sci., 2020, 11,
     e01493. DOI: 10.1002/wcms.1493
   
   for GFN2-xTB:
   * C. Bannwarth, S. Ehlert and S. Grimme., J. Chem. Theory Comput., 2019,
     15, 1652-1671. DOI: 10.1021/acs.jctc.8b01176
   for GFN1-xTB:
   * S. Grimme, C. Bannwarth, P. Shushkov, J. Chem. Theory Comput., 2017,
     13, 1989-2009. DOI: 10.1021/acs.jctc.7b00118
   for GFN0-xTB:
   * P. Pracht, E. Caldeweyher, S. Ehlert, S. Grimme, ChemRxiv, 2019, preprint.
     DOI: 10.26434/chemrxiv.8326202.v1
   for GFN-FF:
   * S. Spicher and S. Grimme, Angew. Chem. Int. Ed., 2020, 59, 15665-15673.
     DOI: 10.1002/anie.202004239
   
   for DFT-D4:
   * E. Caldeweyher, C. Bannwarth and S. Grimme, J. Chem. Phys., 2017,
     147, 034112. DOI: 10.1063/1.4993215
   * E. Caldeweyher, S. Ehlert, A. Hansen, H. Neugebauer, S. Spicher,
     C. Bannwarth and S. Grimme, J. Chem. Phys., 2019, 150, 154122.
     DOI: 10.1063/1.5090222
   * E. Caldeweyher, J.-M. Mewes, S. Ehlert and S. Grimme, Phys. Chem. Chem. Phys.
     2020, 22, 8499-8512. DOI: 10.1039/D0CP00502A
   
   for sTDA-xTB:
   * S. Grimme and C. Bannwarth, J. Chem. Phys., 2016, 145, 054103.
     DOI: 10.1063/1.4959605
   
   in the mass-spec context:
   * V. Asgeirsson, C. Bauer and S. Grimme, Chem. Sci., 2017, 8, 4879.
     DOI: 10.1039/c7sc00601b
   * J. Koopman and S. Grimme, ACS Omega 2019, 4, 12, 15120-15133.
     DOI: 10.1021/acsomega.9b02011
   
   for metadynamics refer to:
   * S. Grimme, J. Chem. Theory Comput., 2019, 155, 2847-2862
     DOI: 10.1021/acs.jctc.9b00143
   
   for SPH calculations refer to:
   * S. Spicher and S. Grimme, J. Chem. Theory Comput., 2021, 17, 1701-1714
     DOI: 10.1021/acs.jctc.0c01306
   
   with help from (in alphabetical order)
   P. Atkinson, C. Bannwarth, F. Bohle, G. Brandenburg, E. Caldeweyher
   M. Checinski, S. Dohm, S. Ehlert, S. Ehrlich, I. Gerasimov, J. Koopman
   C. Lavigne, S. Lehtola, F. März, M. Müller, F. Musil, H. Neugebauer
   J. Pisarek, C. Plett, P. Pracht, J. Seibert, P. Shushkov, S. Spicher
   M. Stahn, M. Steiner, T. Strunk, J. Stückrath, T. Rose, and J. Unsleber
   
 * started run on 2021/11/21 at 21:11:45.928     

           -------------------------------------------------
          |                Calculation Setup                |
           -------------------------------------------------

          program call               : /home/jeff/miniconda3/bin/xtb /home/jeff/chem/final-year-proejct/Zn+2_4_5_outenergy/input_structure.xyz --gfn 2 --parallel 1 --etemp 300 --chrg 0 --uhf 0 -I det_control.in
          coordinate file            : /home/jeff/chem/final-year-proejct/Zn+2_4_5_outenergy/input_structure.xyz
          omp threads                :                     1
          number of atoms            :                   193
          number of electrons        :                   626
          charge                     :                     0
          spin                       :                   0.0
          first test random number   :      0.84201706715043

   ID    Z sym.   atoms
    1   30 Zn     1, 37, 89, 124, 159
    2    6 C      2-9, 11-15, 17-21, 23, 24, 38-45, 47-51, 53-57, 59, 60,
                  73-88, 90-97, 99-103, 105-109, 111, 112, 125-132, 134-138,
                  140-144, 146, 147, 160-167, 169-173, 175-179, 181, 182
    3    7 N      10, 16, 22, 25, 46, 52, 58, 61, 98, 104, 110, 113, 133,
                  139, 145, 148, 168, 174, 180, 183
    4    1 H      26-36, 62-72, 114-123, 149-158, 184-193

           -------------------------------------------------
          |                 G F N 2 - x T B                 |
           -------------------------------------------------

        Reference                      10.1021/acs.jctc.8b01176
      * Hamiltonian:
        H0-scaling (s, p, d)           1.850000    2.230000    2.230000
        zeta-weighting                 0.500000
      * Dispersion:
        s8                             2.700000
        a1                             0.520000
        a2                             5.000000
        s9                             5.000000
      * Repulsion:
        kExp                           1.500000    1.000000
        rExp                           1.000000
      * Coulomb:
        alpha                          2.000000
        third order                    shell-resolved
        anisotropic                    true
        a3                             3.000000
        a5                             4.000000
        cn-shift                       1.200000
        cn-exp                         4.000000
        max-rad                        5.000000


          ...................................................
          :                      SETUP                      :
          :.................................................:
          :  # basis functions                 616          :
          :  # atomic orbitals                 616          :
          :  # shells                          334          :
          :  # electrons                       626          :
          :  max. iterations                   250          :
          :  Hamiltonian                  GFN2-xTB          :
          :  restarted?                      false          :
          :  GBSA solvation                  false          :
          :  PC potential                    false          :
          :  electronic temp.          300.0000000     K    :
          :  accuracy                    1.0000000          :
          :  -> integral cutoff          0.2500000E+02      :
          :  -> integral neglect         0.1000000E-07      :
          :  -> SCF convergence          0.1000000E-05 Eh   :
          :  -> wf. convergence          0.1000000E-03 e    :
          :  Broyden damping             0.4000000          :
          ...................................................

 iter      E             dE          RMSdq      gap      omega  full diag
   1   -341.2601755 -0.341260E+03  0.697E+00    0.89       0.0  T
   2   -341.9413078 -0.681132E+00  0.366E+00    0.84       1.0  T
   3   -341.7720735  0.169234E+00  0.248E+00    0.95       1.0  T
   4   -342.4892648 -0.717191E+00  0.403E-01    0.87       1.0  T
   5   -342.4937035 -0.443875E-02  0.272E-01    0.90       1.0  T
   6   -342.4959952 -0.229169E-02  0.172E-01    0.90       1.0  T
   7   -342.4990049 -0.300965E-02  0.902E-02    0.89       1.0  T
   8   -342.5006489 -0.164405E-02  0.343E-02    0.89       1.0  T
   9   -342.5008615 -0.212589E-03  0.146E-02    0.89       1.0  T
  10   -342.5008837 -0.221949E-04  0.653E-03    0.89       1.1  T
  11   -342.5008883 -0.461987E-05  0.245E-03    0.89       2.9  T
  12   -342.5008890 -0.656472E-06  0.114E-03    0.89       6.3  T
  13   -342.5008890 -0.125409E-07  0.697E-04    0.89      10.3  T
  14   -342.5008891 -0.826705E-07  0.211E-04    0.89      34.1  T

   *** convergence criteria satisfied after 14 iterations ***

         #    Occupation            Energy/Eh            Energy/eV
      -------------------------------------------------------------
         1        2.0000           -0.6683178             -18.1859
       ...           ...                  ...                  ...
       307        2.0000           -0.3705309             -10.0827
       308        2.0000           -0.3692986             -10.0491
       309        2.0000           -0.3692833             -10.0487
       310        2.0000           -0.3666193              -9.9762
       311        2.0000           -0.3602346              -9.8025
       312        2.0000           -0.3538547              -9.6289
       313        2.0000           -0.3490303              -9.4976 (HOMO)
       314                         -0.3163030              -8.6070 (LUMO)
       315                         -0.3107060              -8.4547
       316                         -0.3039460              -8.2708
       317                         -0.2999430              -8.1619
       318                         -0.2997688              -8.1571
       ...                                ...                  ...
       616                          1.6312470              44.3885
      -------------------------------------------------------------
                  HL-Gap            0.0327273 Eh            0.8906 eV
             Fermi-level           -0.3326650 Eh           -9.0523 eV

 SCC (total)                   0 d,  0 h,  0 min,  1.853 sec
 SCC setup                      ...        0 min,  0.006 sec (  0.337%)
 Dispersion                     ...        0 min,  0.017 sec (  0.907%)
 classical contributions        ...        0 min,  0.001 sec (  0.078%)
 integral evaluation            ...        0 min,  0.108 sec (  5.834%)
 iterations                     ...        0 min,  1.398 sec ( 75.455%)
 molecular gradient             ...        0 min,  0.310 sec ( 16.735%)
 printout                       ...        0 min,  0.012 sec (  0.653%)

         :::::::::::::::::::::::::::::::::::::::::::::::::::::
         ::                     SUMMARY                     ::
         :::::::::::::::::::::::::::::::::::::::::::::::::::::
         :: total energy            -336.212834444552 Eh    ::
         :: gradient norm              0.000483595582 Eh/a0 ::
         :: HOMO-LUMO gap              0.890555011376 eV    ::
         ::.................................................::
         :: SCC energy              -342.500889079014 Eh    ::
         :: -> isotropic ES            0.325333894270 Eh    ::
         :: -> anisotropic ES          0.044198472816 Eh    ::
         :: -> anisotropic XC          0.192430750619 Eh    ::
         :: -> dispersion             -0.311385367802 Eh    ::
         :: repulsion energy           6.293314912481 Eh    ::
         :: add. restraining           0.000000000000 Eh    ::
         :: total charge               0.000000000229 e     ::
         :::::::::::::::::::::::::::::::::::::::::::::::::::::

           -------------------------------------------------
          |                Property Printout                |
           -------------------------------------------------

    * Orbital Energies and Occupations

         #    Occupation            Energy/Eh            Energy/eV
      -------------------------------------------------------------
         1        2.0000           -0.6683178             -18.1859
       ...           ...                  ...                  ...
       301        2.0000           -0.3877415             -10.5510
       302        2.0000           -0.3863088             -10.5120
       303        2.0000           -0.3862893             -10.5115
       304        2.0000           -0.3716426             -10.1129
       305        2.0000           -0.3707042             -10.0874
       306        2.0000           -0.3705333             -10.0827
       307        2.0000           -0.3705309             -10.0827
       308        2.0000           -0.3692986             -10.0491
       309        2.0000           -0.3692833             -10.0487
       310        2.0000           -0.3666193              -9.9762
       311        2.0000           -0.3602346              -9.8025
       312        2.0000           -0.3538547              -9.6289
       313        2.0000           -0.3490303              -9.4976 (HOMO)
       314                         -0.3163030              -8.6070 (LUMO)
       315                         -0.3107060              -8.4547
       316                         -0.3039460              -8.2708
       317                         -0.2999430              -8.1619
       318                         -0.2997688              -8.1571
       319                         -0.2997665              -8.1571
       320                         -0.2986157              -8.1257
       321                         -0.2985996              -8.1253
       322                         -0.2973394              -8.0910
       323                         -0.2929699              -7.9721
       324                         -0.2731356              -7.4324
       ...                                ...                  ...
       616                          1.6312470              44.3885
      -------------------------------------------------------------
                  HL-Gap            0.0327273 Eh            0.8906 eV
             Fermi-level           -0.3326650 Eh           -9.0523 eV

     #   Z          covCN         q      C6AA      α(0)
     1  30 Zn       3.042     0.245   122.298    21.603
     2   6 C        3.020    -0.052    29.266     8.874
     3   6 C        3.018    -0.050    29.228     8.868
     4   6 C        3.166     0.077    25.943     8.323
     5   6 C        2.953     0.017    27.630     8.622
     6   6 C        3.166     0.077    25.944     8.324
     7   6 C        3.018    -0.050    29.226     8.868
     8   6 C        3.020    -0.052    29.266     8.874
     9   6 C        3.149     0.076    26.052     8.349
    10   7 N        2.632    -0.177    24.836     7.402
    11   6 C        2.901    -0.050    29.234     8.865
    12   6 C        3.145     0.077    26.038     8.348
    13   6 C        3.017    -0.051    29.244     8.871
    14   6 C        3.018    -0.051    29.247     8.871
    15   6 C        3.145     0.077    26.028     8.347
    16   7 N        2.635    -0.175    24.791     7.395
    17   6 C        2.901    -0.052    29.278     8.872
    18   6 C        3.145     0.077    26.028     8.347
    19   6 C        3.018    -0.051    29.247     8.871
    20   6 C        3.017    -0.051    29.244     8.871
    21   6 C        3.145     0.077    26.038     8.348
    22   7 N        2.634    -0.175    24.791     7.395
    23   6 C        2.901    -0.050    29.234     8.865
    24   6 C        3.149     0.076    26.052     8.349
    25   7 N        2.632    -0.177    24.835     7.401
    26   1 H        0.926     0.034     2.534     2.489
    27   1 H        0.926     0.035     2.510     2.478
    28   1 H        0.926     0.035     2.510     2.477
    29   1 H        0.926     0.034     2.534     2.489
    30   1 H        0.926     0.049     2.329     2.387
    31   1 H        0.926     0.034     2.526     2.485
    32   1 H        0.926     0.034     2.527     2.486
    33   1 H        0.926     0.049     2.337     2.391
    34   1 H        0.926     0.034     2.527     2.486
    35   1 H        0.926     0.034     2.526     2.485
    36   1 H        0.926     0.049     2.329     2.387
    37  30 Zn       3.042     0.245   122.298    21.603
    38   6 C        3.020    -0.052    29.266     8.874
    39   6 C        3.018    -0.050    29.228     8.868
    40   6 C        3.166     0.077    25.944     8.324
    41   6 C        2.953     0.017    27.630     8.622
    42   6 C        3.166     0.077    25.945     8.324
    43   6 C        3.018    -0.050    29.227     8.868
    44   6 C        3.020    -0.052    29.266     8.874
    45   6 C        3.149     0.076    26.051     8.349
    46   7 N        2.632    -0.177    24.837     7.402
    47   6 C        2.901    -0.050    29.235     8.865
    48   6 C        3.145     0.077    26.038     8.348
    49   6 C        3.017    -0.051    29.244     8.871
    50   6 C        3.018    -0.051    29.247     8.871
    51   6 C        3.145     0.077    26.028     8.347
    52   7 N        2.635    -0.175    24.791     7.395
    53   6 C        2.901    -0.052    29.278     8.872
    54   6 C        3.145     0.077    26.028     8.347
    55   6 C        3.018    -0.051    29.247     8.871
    56   6 C        3.017    -0.051    29.244     8.871
    57   6 C        3.145     0.077    26.038     8.348
    58   7 N        2.635    -0.175    24.792     7.395
    59   6 C        2.901    -0.050    29.235     8.865
    60   6 C        3.149     0.076    26.051     8.349
    61   7 N        2.632    -0.177    24.836     7.401
    62   1 H        0.926     0.034     2.534     2.489
    63   1 H        0.926     0.035     2.510     2.477
    64   1 H        0.926     0.035     2.510     2.477
    65   1 H        0.926     0.034     2.534     2.489
    66   1 H        0.926     0.049     2.330     2.387
    67   1 H        0.926     0.034     2.526     2.485
    68   1 H        0.926     0.034     2.527     2.486
    69   1 H        0.926     0.049     2.338     2.391
    70   1 H        0.926     0.034     2.527     2.486
    71   1 H        0.926     0.034     2.526     2.485
    72   1 H        0.926     0.049     2.329     2.387
    73   6 C        1.996    -0.020    31.583     9.076
    74   6 C        1.963    -0.010    31.335     9.040
    75   6 C        1.963    -0.009    31.317     9.037
    76   6 C        1.996    -0.021    31.604     9.079
    77   6 C        1.996    -0.021    31.589     9.077
    78   6 C        1.963    -0.010    31.324     9.038
    79   6 C        1.963    -0.009    31.320     9.038
    80   6 C        1.996    -0.021    31.593     9.077
    81   6 C        1.996    -0.021    31.593     9.077
    82   6 C        1.963    -0.009    31.320     9.038
    83   6 C        1.963    -0.010    31.324     9.038
    84   6 C        1.996    -0.021    31.589     9.077
    85   6 C        1.996    -0.021    31.603     9.079
    86   6 C        1.963    -0.009    31.316     9.037
    87   6 C        1.963    -0.010    31.335     9.040
    88   6 C        1.996    -0.020    31.582     9.076
    89  30 Zn       3.038     0.246   122.275    21.601
    90   6 C        3.021    -0.052    29.262     8.873
    91   6 C        3.019    -0.050    29.227     8.868
    92   6 C        3.167     0.077    25.935     8.322
    93   6 C        2.953     0.017    27.621     8.620
    94   6 C        3.167     0.077    25.935     8.322
    95   6 C        3.019    -0.050    29.226     8.868
    96   6 C        3.021    -0.052    29.262     8.873
    97   6 C        3.151     0.075    26.056     8.349
    98   7 N        2.632    -0.177    24.838     7.402
    99   6 C        2.901    -0.048    29.182     8.857
   100   6 C        3.150     0.075    26.058     8.349
   101   6 C        3.020    -0.052    29.261     8.873
   102   6 C        3.019    -0.050    29.229     8.868
   103   6 C        3.167     0.078    25.934     8.322
   104   7 N        2.632    -0.177    24.838     7.402
   105   6 C        2.953     0.017    27.629     8.621
   106   6 C        3.167     0.078    25.934     8.322
   107   6 C        3.018    -0.050    29.229     8.868
   108   6 C        3.020    -0.052    29.261     8.873
   109   6 C        3.150     0.075    26.058     8.349
   110   7 N        2.632    -0.177    24.838     7.402
   111   6 C        2.901    -0.048    29.181     8.857
   112   6 C        3.151     0.075    26.056     8.349
   113   7 N        2.632    -0.177    24.837     7.402
   114   1 H        0.926     0.034     2.532     2.489
   115   1 H        0.926     0.036     2.509     2.477
   116   1 H        0.926     0.036     2.508     2.477
   117   1 H        0.926     0.034     2.533     2.489
   118   1 H        0.925     0.050     2.321     2.382
   119   1 H        0.926     0.034     2.533     2.489
   120   1 H        0.926     0.035     2.510     2.478
   121   1 H        0.926     0.035     2.510     2.478
   122   1 H        0.926     0.034     2.533     2.489
   123   1 H        0.925     0.050     2.321     2.382
   124  30 Zn       3.038     0.246   122.275    21.601
   125   6 C        3.021    -0.052    29.261     8.873
   126   6 C        3.019    -0.050    29.228     8.868
   127   6 C        3.167     0.078    25.934     8.322
   128   6 C        2.953     0.017    27.625     8.621
   129   6 C        3.167     0.078    25.934     8.322
   130   6 C        3.019    -0.050    29.228     8.868
   131   6 C        3.021    -0.052    29.261     8.873
   132   6 C        3.150     0.075    26.057     8.349
   133   7 N        2.632    -0.177    24.837     7.402
   134   6 C        2.901    -0.048    29.179     8.857
   135   6 C        3.150     0.075    26.058     8.349
   136   6 C        3.020    -0.052    29.261     8.873
   137   6 C        3.019    -0.050    29.228     8.868
   138   6 C        3.167     0.078    25.935     8.322
   139   7 N        2.632    -0.177    24.837     7.402
   140   6 C        2.953     0.017    27.625     8.621
   141   6 C        3.167     0.078    25.934     8.322
   142   6 C        3.019    -0.050    29.228     8.868
   143   6 C        3.021    -0.052    29.261     8.873
   144   6 C        3.150     0.075    26.057     8.349
   145   7 N        2.632    -0.177    24.837     7.402
   146   6 C        2.901    -0.048    29.179     8.857
   147   6 C        3.150     0.075    26.057     8.349
   148   7 N        2.632    -0.177    24.837     7.402
   149   1 H        0.926     0.034     2.532     2.488
   150   1 H        0.926     0.035     2.509     2.477
   151   1 H        0.926     0.035     2.509     2.477
   152   1 H        0.926     0.034     2.532     2.488
   153   1 H        0.925     0.050     2.320     2.382
   154   1 H        0.926     0.034     2.532     2.488
   155   1 H        0.926     0.036     2.509     2.477
   156   1 H        0.926     0.035     2.510     2.477
   157   1 H        0.926     0.034     2.532     2.488
   158   1 H        0.925     0.050     2.320     2.382
   159  30 Zn       3.038     0.246   122.275    21.601
   160   6 C        3.021    -0.052    29.261     8.873
   161   6 C        3.019    -0.050    29.229     8.868
   162   6 C        3.167     0.078    25.934     8.322
   163   6 C        2.953     0.017    27.629     8.621
   164   6 C        3.167     0.078    25.935     8.322
   165   6 C        3.018    -0.050    29.228     8.868
   166   6 C        3.020    -0.052    29.261     8.873
   167   6 C        3.150     0.075    26.058     8.350
   168   7 N        2.632    -0.177    24.838     7.402
   169   6 C        2.901    -0.048    29.182     8.857
   170   6 C        3.150     0.075    26.056     8.349
   171   6 C        3.020    -0.052    29.262     8.873
   172   6 C        3.018    -0.050    29.227     8.868
   173   6 C        3.167     0.077    25.936     8.322
   174   7 N        2.632    -0.177    24.838     7.402
   175   6 C        2.953     0.017    27.621     8.620
   176   6 C        3.167     0.077    25.935     8.322
   177   6 C        3.018    -0.050    29.226     8.868
   178   6 C        3.021    -0.052    29.262     8.873
   179   6 C        3.151     0.075    26.055     8.349
   180   7 N        2.632    -0.177    24.838     7.402
   181   6 C        2.901    -0.048    29.182     8.857
   182   6 C        3.150     0.075    26.057     8.349
   183   7 N        2.632    -0.177    24.838     7.402
   184   1 H        0.926     0.034     2.532     2.489
   185   1 H        0.926     0.035     2.510     2.478
   186   1 H        0.926     0.035     2.510     2.478
   187   1 H        0.926     0.034     2.533     2.489
   188   1 H        0.925     0.050     2.321     2.382
   189   1 H        0.926     0.034     2.532     2.488
   190   1 H        0.926     0.036     2.508     2.477
   191   1 H        0.926     0.036     2.508     2.476
   192   1 H        0.926     0.034     2.532     2.489
   193   1 H        0.925     0.050     2.321     2.382

 Mol. C6AA /au·bohr⁶  :     726285.721607
 Mol. C8AA /au·bohr⁸  :   20685667.704491
 Mol. α(0) /au        :       1392.567083


Wiberg/Mayer (AO) data.
largest (>0.10) Wiberg bond orders for each atom

 ---------------------------------------------------------------------------
     #   Z sym  total        # sym  WBO       # sym  WBO       # sym  WBO
 ---------------------------------------------------------------------------
     1  30 Zn   2.081 --    16 N    0.491    22 N    0.491    10 N    0.489
                            25 N    0.489
     2   6 C    3.953 --     3 C    1.650    24 C    1.171    26 H    0.972
     3   6 C    3.957 --     2 C    1.650     4 C    1.179    27 H    0.971
     4   6 C    3.912 --    25 N    1.286     5 C    1.252     3 C    1.179
     5   6 C    3.941 --     6 C    1.252     4 C    1.252    73 C    1.184
     6   6 C    3.912 --    10 N    1.286     5 C    1.252     7 C    1.179
     7   6 C    3.957 --     8 C    1.650     6 C    1.179    28 H    0.971
     8   6 C    3.953 --     7 C    1.650     9 C    1.171    29 H    0.972
     9   6 C    3.924 --    11 C    1.358    10 N    1.247     8 C    1.171
    10   7 N    3.467 --     6 C    1.286     9 C    1.247     1 Zn   0.489
    11   6 C    3.931 --     9 C    1.358    12 C    1.354    30 H    0.964
    12   6 C    3.929 --    11 C    1.354    16 N    1.261    13 C    1.163
    13   6 C    3.957 --    14 C    1.666    12 C    1.163    31 H    0.972
    14   6 C    3.955 --    13 C    1.666    15 C    1.162    32 H    0.972
    15   6 C    3.932 --    17 C    1.354    16 N    1.263    14 C    1.162
    16   7 N    3.464 --    15 C    1.263    12 C    1.261     1 Zn   0.491
    17   6 C    3.926 --    18 C    1.354    15 C    1.354    33 H    0.964
    18   6 C    3.932 --    17 C    1.354    22 N    1.263    19 C    1.162
    19   6 C    3.955 --    20 C    1.666    18 C    1.162    34 H    0.972
    20   6 C    3.957 --    19 C    1.666    21 C    1.163    35 H    0.972
    21   6 C    3.929 --    23 C    1.354    22 N    1.261    20 C    1.163
    22   7 N    3.464 --    18 C    1.263    21 C    1.261     1 Zn   0.491
    23   6 C    3.931 --    24 C    1.358    21 C    1.354    36 H    0.964
    24   6 C    3.924 --    23 C    1.358    25 N    1.247     2 C    1.171
    25   7 N    3.467 --     4 C    1.286    24 C    1.247     1 Zn   0.489
    26   1 H    0.998 --     2 C    0.972
    27   1 H    0.998 --     3 C    0.971
    28   1 H    0.998 --     7 C    0.971
    29   1 H    0.998 --     8 C    0.972
    30   1 H    0.996 --    11 C    0.964
    31   1 H    0.998 --    13 C    0.972
    32   1 H    0.998 --    14 C    0.972
    33   1 H    0.996 --    17 C    0.964
    34   1 H    0.998 --    19 C    0.972
    35   1 H    0.998 --    20 C    0.972
    36   1 H    0.996 --    23 C    0.964
    37  30 Zn   2.081 --    52 N    0.491    58 N    0.491    46 N    0.489
                            61 N    0.489
    38   6 C    3.953 --    39 C    1.651    60 C    1.171    62 H    0.972
    39   6 C    3.957 --    38 C    1.651    40 C    1.179    63 H    0.971
    40   6 C    3.912 --    61 N    1.286    41 C    1.252    39 C    1.179
    41   6 C    3.941 --    42 C    1.253    40 C    1.252    88 C    1.183
    42   6 C    3.912 --    46 N    1.286    41 C    1.253    43 C    1.179
    43   6 C    3.957 --    44 C    1.651    42 C    1.179    64 H    0.971
    44   6 C    3.953 --    43 C    1.651    45 C    1.171    65 H    0.972
    45   6 C    3.924 --    47 C    1.358    46 N    1.247    44 C    1.171
    46   7 N    3.467 --    42 C    1.286    45 C    1.247    37 Zn   0.489
    47   6 C    3.931 --    45 C    1.358    48 C    1.354    66 H    0.964
    48   6 C    3.929 --    47 C    1.354    52 N    1.261    49 C    1.163
    49   6 C    3.957 --    50 C    1.666    48 C    1.163    67 H    0.972
    50   6 C    3.955 --    49 C    1.666    51 C    1.162    68 H    0.972
    51   6 C    3.932 --    53 C    1.354    52 N    1.263    50 C    1.162
    52   7 N    3.464 --    51 C    1.263    48 C    1.261    37 Zn   0.491
    53   6 C    3.926 --    54 C    1.354    51 C    1.354    69 H    0.964
    54   6 C    3.932 --    53 C    1.354    58 N    1.263    55 C    1.162
    55   6 C    3.955 --    56 C    1.666    54 C    1.162    70 H    0.972
    56   6 C    3.957 --    55 C    1.666    57 C    1.163    71 H    0.972
    57   6 C    3.929 --    59 C    1.354    58 N    1.261    56 C    1.163
    58   7 N    3.464 --    54 C    1.263    57 C    1.261    37 Zn   0.491
    59   6 C    3.931 --    60 C    1.358    57 C    1.354    72 H    0.964
    60   6 C    3.924 --    59 C    1.358    61 N    1.247    38 C    1.171
    61   7 N    3.467 --    40 C    1.286    60 C    1.247    37 Zn   0.489
    62   1 H    0.998 --    38 C    0.972
    63   1 H    0.998 --    39 C    0.971
    64   1 H    0.998 --    43 C    0.971
    65   1 H    0.998 --    44 C    0.972
    66   1 H    0.996 --    47 C    0.964
    67   1 H    0.998 --    49 C    0.972
    68   1 H    0.998 --    50 C    0.972
    69   1 H    0.996 --    53 C    0.964
    70   1 H    0.998 --    55 C    0.972
    71   1 H    0.998 --    56 C    0.972
    72   1 H    0.996 --    59 C    0.964
    73   6 C    3.918 --    74 C    2.470     5 C    1.184    76 C    0.203
    74   6 C    3.928 --    73 C    2.470    75 C    1.305
    75   6 C    3.925 --    76 C    2.469    74 C    1.305
    76   6 C    3.919 --    75 C    2.469    93 C    1.187    73 C    0.203
    77   6 C    3.918 --    78 C    2.466   105 C    1.188    80 C    0.202
    78   6 C    3.925 --    77 C    2.466    79 C    1.307
    79   6 C    3.925 --    80 C    2.466    78 C    1.307
    80   6 C    3.918 --    79 C    2.466   128 C    1.188    77 C    0.202
    81   6 C    3.918 --    82 C    2.466   140 C    1.188    84 C    0.202
    82   6 C    3.925 --    81 C    2.466    83 C    1.307
    83   6 C    3.925 --    84 C    2.466    82 C    1.307
    84   6 C    3.918 --    83 C    2.466   163 C    1.188    81 C    0.202
    85   6 C    3.919 --    86 C    2.470   175 C    1.186    88 C    0.203
    86   6 C    3.925 --    85 C    2.470    87 C    1.304
    87   6 C    3.928 --    88 C    2.471    86 C    1.304
    88   6 C    3.917 --    87 C    2.471    41 C    1.183    85 C    0.203
    89  30 Zn   2.076 --   104 N    0.489   110 N    0.489   113 N    0.489
                            98 N    0.489
    90   6 C    3.954 --    91 C    1.648   112 C    1.173   114 H    0.972
    91   6 C    3.955 --    90 C    1.648    92 C    1.181   115 H    0.971
    92   6 C    3.912 --   113 N    1.287    93 C    1.249    91 C    1.181
    93   6 C    3.929 --    94 C    1.250    92 C    1.249    76 C    1.187
    94   6 C    3.912 --    98 N    1.287    93 C    1.250    95 C    1.181
    95   6 C    3.955 --    96 C    1.648    94 C    1.181   116 H    0.971
    96   6 C    3.954 --    95 C    1.648    97 C    1.173   117 H    0.972
    97   6 C    3.923 --    99 C    1.356    98 N    1.245    96 C    1.173
    98   7 N    3.460 --    94 C    1.287    97 C    1.245    89 Zn   0.489
    99   6 C    3.925 --   100 C    1.357    97 C    1.356   118 H    0.964
   100   6 C    3.923 --    99 C    1.357   104 N    1.244   101 C    1.173
   101   6 C    3.954 --   102 C    1.648   100 C    1.173   119 H    0.972
   102   6 C    3.955 --   101 C    1.648   103 C    1.181   120 H    0.971
   103   6 C    3.912 --   104 N    1.288   105 C    1.249   102 C    1.181
   104   7 N    3.460 --   103 C    1.288   100 C    1.244    89 Zn   0.489
   105   6 C    3.929 --   106 C    1.249   103 C    1.249    77 C    1.188
   106   6 C    3.912 --   110 N    1.288   105 C    1.249   107 C    1.181
   107   6 C    3.955 --   108 C    1.648   106 C    1.181   121 H    0.971
   108   6 C    3.954 --   107 C    1.648   109 C    1.173   122 H    0.972
   109   6 C    3.923 --   111 C    1.357   110 N    1.244   108 C    1.173
   110   7 N    3.460 --   106 C    1.288   109 C    1.244    89 Zn   0.489
   111   6 C    3.925 --   109 C    1.357   112 C    1.356   123 H    0.964
   112   6 C    3.923 --   111 C    1.356   113 N    1.245    90 C    1.173
   113   7 N    3.460 --    92 C    1.287   112 C    1.245    89 Zn   0.489
   114   1 H    0.998 --    90 C    0.972
   115   1 H    0.998 --    91 C    0.971
   116   1 H    0.998 --    95 C    0.971
   117   1 H    0.998 --    96 C    0.972
   118   1 H    0.996 --    99 C    0.964
   119   1 H    0.998 --   101 C    0.972
   120   1 H    0.998 --   102 C    0.971
   121   1 H    0.998 --   107 C    0.971
   122   1 H    0.998 --   108 C    0.972
   123   1 H    0.996 --   111 C    0.964
   124  30 Zn   2.076 --   133 N    0.489   145 N    0.489   139 N    0.489
                           148 N    0.489
   125   6 C    3.953 --   126 C    1.648   147 C    1.173   149 H    0.972
   126   6 C    3.955 --   125 C    1.648   127 C    1.181   150 H    0.971
   127   6 C    3.912 --   148 N    1.288   128 C    1.249   126 C    1.181
   128   6 C    3.929 --   127 C    1.249   129 C    1.249    80 C    1.188
   129   6 C    3.912 --   133 N    1.288   128 C    1.249   130 C    1.181
   130   6 C    3.955 --   131 C    1.648   129 C    1.181   151 H    0.971
   131   6 C    3.953 --   130 C    1.648   132 C    1.173   152 H    0.972
   132   6 C    3.923 --   134 C    1.356   133 N    1.245   131 C    1.173
   133   7 N    3.460 --   129 C    1.288   132 C    1.245   124 Zn   0.489
   134   6 C    3.925 --   132 C    1.356   135 C    1.356   153 H    0.964
   135   6 C    3.923 --   134 C    1.356   139 N    1.245   136 C    1.173
   136   6 C    3.954 --   137 C    1.648   135 C    1.173   154 H    0.972
   137   6 C    3.955 --   136 C    1.648   138 C    1.181   155 H    0.971
   138   6 C    3.912 --   139 N    1.288   140 C    1.249   137 C    1.181
   139   7 N    3.460 --   138 C    1.288   135 C    1.245   124 Zn   0.489
   140   6 C    3.929 --   138 C    1.249   141 C    1.249    81 C    1.188
   141   6 C    3.912 --   145 N    1.288   140 C    1.249   142 C    1.181
   142   6 C    3.955 --   143 C    1.648   141 C    1.181   156 H    0.971
   143   6 C    3.953 --   142 C    1.648   144 C    1.173   157 H    0.972
   144   6 C    3.923 --   146 C    1.356   145 N    1.245   143 C    1.173
   145   7 N    3.460 --   141 C    1.288   144 C    1.245   124 Zn   0.489
   146   6 C    3.925 --   147 C    1.356   144 C    1.356   158 H    0.964
   147   6 C    3.923 --   146 C    1.356   148 N    1.245   125 C    1.173
   148   7 N    3.460 --   127 C    1.288   147 C    1.245   124 Zn   0.489
   149   1 H    0.998 --   125 C    0.972
   150   1 H    0.998 --   126 C    0.971
   151   1 H    0.998 --   130 C    0.971
   152   1 H    0.998 --   131 C    0.972
   153   1 H    0.996 --   134 C    0.964
   154   1 H    0.998 --   136 C    0.972
   155   1 H    0.998 --   137 C    0.971
   156   1 H    0.998 --   142 C    0.971
   157   1 H    0.998 --   143 C    0.972
   158   1 H    0.996 --   146 C    0.964
   159  30 Zn   2.076 --   183 N    0.489   168 N    0.489   174 N    0.489
                           180 N    0.489
   160   6 C    3.953 --   161 C    1.648   182 C    1.173   184 H    0.972
   161   6 C    3.955 --   160 C    1.648   162 C    1.181   185 H    0.971
   162   6 C    3.912 --   183 N    1.288   163 C    1.249   161 C    1.181
   163   6 C    3.929 --   164 C    1.249   162 C    1.249    84 C    1.188
   164   6 C    3.912 --   168 N    1.288   163 C    1.249   165 C    1.181
   165   6 C    3.955 --   166 C    1.648   164 C    1.181   186 H    0.971
   166   6 C    3.954 --   165 C    1.648   167 C    1.173   187 H    0.972
   167   6 C    3.923 --   169 C    1.357   168 N    1.244   166 C    1.173
   168   7 N    3.460 --   164 C    1.288   167 C    1.244   159 Zn   0.489
   169   6 C    3.925 --   167 C    1.357   170 C    1.356   188 H    0.964
   170   6 C    3.923 --   169 C    1.356   174 N    1.245   171 C    1.173
   171   6 C    3.954 --   172 C    1.648   170 C    1.173   189 H    0.972
   172   6 C    3.955 --   171 C    1.648   173 C    1.181   190 H    0.971
   173   6 C    3.912 --   174 N    1.287   175 C    1.250   172 C    1.181
   174   7 N    3.460 --   173 C    1.287   170 C    1.245   159 Zn   0.489
   175   6 C    3.929 --   176 C    1.250   173 C    1.250    85 C    1.186
   176   6 C    3.912 --   180 N    1.287   175 C    1.250   177 C    1.181
   177   6 C    3.955 --   178 C    1.648   176 C    1.181   191 H    0.971
   178   6 C    3.954 --   177 C    1.648   179 C    1.173   192 H    0.972
   179   6 C    3.923 --   181 C    1.356   180 N    1.245   178 C    1.173
   180   7 N    3.460 --   176 C    1.287   179 C    1.245   159 Zn   0.489
   181   6 C    3.925 --   182 C    1.357   179 C    1.356   193 H    0.964
   182   6 C    3.923 --   181 C    1.357   183 N    1.244   160 C    1.173
   183   7 N    3.460 --   162 C    1.288   182 C    1.244   159 Zn   0.489
   184   1 H    0.998 --   160 C    0.972
   185   1 H    0.998 --   161 C    0.971
   186   1 H    0.998 --   165 C    0.971
   187   1 H    0.998 --   166 C    0.972
   188   1 H    0.996 --   169 C    0.964
   189   1 H    0.998 --   171 C    0.972
   190   1 H    0.998 --   172 C    0.971
   191   1 H    0.998 --   177 C    0.971
   192   1 H    0.998 --   178 C    0.972
   193   1 H    0.996 --   181 C    0.964
 ---------------------------------------------------------------------------

Topologies differ in total number of bonds
Writing topology from bond orders to xtbtopo.mol

molecular dipole:
                 x           y           z       tot (Debye)
 q only:       -0.000      -0.000      -0.003
   full:       -0.000      -0.000      -0.005       0.014
molecular quadrupole (traceless):
                xx          xy          yy          xz          yz          zz
 q only:       68.489       0.382      -5.025      -0.379      -2.072     -63.464
  q+dip:      131.213       0.581       9.551      -0.768      -5.227    -140.765
   full:       90.408       0.572      -4.614      -0.752      -2.873     -85.795


           -------------------------------------------------
          | TOTAL ENERGY             -336.212834444552 Eh   |
          | GRADIENT NORM               0.000483595582 Eh/α |
          | HOMO-LUMO GAP               0.890555011376 eV   |
           -------------------------------------------------

------------------------------------------------------------------------
 * finished run on 2021/11/21 at 21:11:47.881     
------------------------------------------------------------------------
 total:
 * wall-time:     0 d,  0 h,  0 min,  1.953 sec
 *  cpu-time:     0 d,  0 h,  0 min,  1.953 sec
 * ratio c/w:     1.000 speedup
 SCF:
 * wall-time:     0 d,  0 h,  0 min,  1.856 sec
 *  cpu-time:     0 d,  0 h,  0 min,  1.856 sec
 * ratio c/w:     1.000 speedup

