      -----------------------------------------------------------      
     |                   =====================                   |     
     |                           x T B                           |     
     |                   =====================                   |     
     |                         S. Grimme                         |     
     |          Mulliken Center for Theoretical Chemistry        |     
     |                    University of Bonn                     |     
      -----------------------------------------------------------      

   * xtb version 6.4.1 (bd6e46d) compiled by 'conda@4901f00b25ba' on 2021-06-10

   xtb is free software: you can redistribute it and/or modify it under
   the terms of the GNU Lesser General Public License as published by
   the Free Software Foundation, either version 3 of the License, or
   (at your option) any later version.
   
   xtb is distributed in the hope that it will be useful,
   but WITHOUT ANY WARRANTY; without even the implied warranty of
   MERCHANTABILITY or FITNESS FOR A PARTICULAR PURPOSE.  See the
   GNU Lesser General Public License for more details.
   
   Cite this work as:
   * C. Bannwarth, E. Caldeweyher, S. Ehlert, A. Hansen, P. Pracht,
     J. Seibert, S. Spicher, S. Grimme, WIREs Comput. Mol. Sci., 2020, 11,
     e01493. DOI: 10.1002/wcms.1493
   
   for GFN2-xTB:
   * C. Bannwarth, S. Ehlert and S. Grimme., J. Chem. Theory Comput., 2019,
     15, 1652-1671. DOI: 10.1021/acs.jctc.8b01176
   for GFN1-xTB:
   * S. Grimme, C. Bannwarth, P. Shushkov, J. Chem. Theory Comput., 2017,
     13, 1989-2009. DOI: 10.1021/acs.jctc.7b00118
   for GFN0-xTB:
   * P. Pracht, E. Caldeweyher, S. Ehlert, S. Grimme, ChemRxiv, 2019, preprint.
     DOI: 10.26434/chemrxiv.8326202.v1
   for GFN-FF:
   * S. Spicher and S. Grimme, Angew. Chem. Int. Ed., 2020, 59, 15665-15673.
     DOI: 10.1002/anie.202004239
   
   for DFT-D4:
   * E. Caldeweyher, C. Bannwarth and S. Grimme, J. Chem. Phys., 2017,
     147, 034112. DOI: 10.1063/1.4993215
   * E. Caldeweyher, S. Ehlert, A. Hansen, H. Neugebauer, S. Spicher,
     C. Bannwarth and S. Grimme, J. Chem. Phys., 2019, 150, 154122.
     DOI: 10.1063/1.5090222
   * E. Caldeweyher, J.-M. Mewes, S. Ehlert and S. Grimme, Phys. Chem. Chem. Phys.
     2020, 22, 8499-8512. DOI: 10.1039/D0CP00502A
   
   for sTDA-xTB:
   * S. Grimme and C. Bannwarth, J. Chem. Phys., 2016, 145, 054103.
     DOI: 10.1063/1.4959605
   
   in the mass-spec context:
   * V. Asgeirsson, C. Bauer and S. Grimme, Chem. Sci., 2017, 8, 4879.
     DOI: 10.1039/c7sc00601b
   * J. Koopman and S. Grimme, ACS Omega 2019, 4, 12, 15120-15133.
     DOI: 10.1021/acsomega.9b02011
   
   for metadynamics refer to:
   * S. Grimme, J. Chem. Theory Comput., 2019, 155, 2847-2862
     DOI: 10.1021/acs.jctc.9b00143
   
   for SPH calculations refer to:
   * S. Spicher and S. Grimme, J. Chem. Theory Comput., 2021, 17, 1701-1714
     DOI: 10.1021/acs.jctc.0c01306
   
   with help from (in alphabetical order)
   P. Atkinson, C. Bannwarth, F. Bohle, G. Brandenburg, E. Caldeweyher
   M. Checinski, S. Dohm, S. Ehlert, S. Ehrlich, I. Gerasimov, J. Koopman
   C. Lavigne, S. Lehtola, F. März, M. Müller, F. Musil, H. Neugebauer
   J. Pisarek, C. Plett, P. Pracht, J. Seibert, P. Shushkov, S. Spicher
   M. Stahn, M. Steiner, T. Strunk, J. Stückrath, T. Rose, and J. Unsleber
   
 * started run on 2021/11/20 at 15:54:48.151     

           -------------------------------------------------
          |                Calculation Setup                |
           -------------------------------------------------

          program call               : /home/jeff/miniconda3/bin/xtb /home/jeff/chem/final-year-proejct/Ni+2_4_3_outenergy/input_structure.xyz --gfn 2 --parallel 1 --etemp 300 --chrg 0 --uhf 0 -I det_control.in
          coordinate file            : /home/jeff/chem/final-year-proejct/Ni+2_4_3_outenergy/input_structure.xyz
          omp threads                :                     1
          number of atoms            :                   115
          number of electrons        :                   394
          charge                     :                     0
          spin                       :                   0.0
          first test random number   :      0.80385573105092

   ID    Z sym.   atoms
    1   28 Ni     1, 37, 81
    2    6 C      2-9, 11-15, 17-21, 23, 24, 38-45, 47-51, 53-57, 59, 60,
                  73-80, 82-89, 91-95, 97-101, 103, 104
    3    7 N      10, 16, 22, 25, 46, 52, 58, 61, 90, 96, 102, 105
    4    1 H      26-36, 62-72, 106-115

           -------------------------------------------------
          |                 G F N 2 - x T B                 |
           -------------------------------------------------

        Reference                      10.1021/acs.jctc.8b01176
      * Hamiltonian:
        H0-scaling (s, p, d)           1.850000    2.230000    2.230000
        zeta-weighting                 0.500000
      * Dispersion:
        s8                             2.700000
        a1                             0.520000
        a2                             5.000000
        s9                             5.000000
      * Repulsion:
        kExp                           1.500000    1.000000
        rExp                           1.000000
      * Coulomb:
        alpha                          2.000000
        third order                    shell-resolved
        anisotropic                    true
        a3                             3.000000
        a5                             4.000000
        cn-shift                       1.200000
        cn-exp                         4.000000
        max-rad                        5.000000


          ...................................................
          :                      SETUP                      :
          :.................................................:
          :  # basis functions                 382          :
          :  # atomic orbitals                 379          :
          :  # shells                          201          :
          :  # electrons                       394          :
          :  max. iterations                   250          :
          :  Hamiltonian                  GFN2-xTB          :
          :  restarted?                      false          :
          :  GBSA solvation                  false          :
          :  PC potential                    false          :
          :  electronic temp.          300.0000000     K    :
          :  accuracy                    1.0000000          :
          :  -> integral cutoff          0.2500000E+02      :
          :  -> integral neglect         0.1000000E-07      :
          :  -> SCF convergence          0.1000000E-05 Eh   :
          :  -> wf. convergence          0.1000000E-03 e    :
          :  Broyden damping             0.4000000          :
          ...................................................

 iter      E             dE          RMSdq      gap      omega  full diag
   1   -214.9460229 -0.214946E+03  0.774E+00    0.75       0.0  T
   2   -215.2122720 -0.266249E+00  0.418E+00    1.09       1.0  T
   3   -215.1834746  0.287974E-01  0.119E+00    0.92       1.0  T
   4   -215.1839324 -0.457842E-03  0.631E-01    1.14       1.0  T
   5   -215.2195422 -0.356098E-01  0.316E-01    1.11       1.0  T
   6   -215.2276830 -0.814075E-02  0.196E-01    1.11       1.0  T
   7   -215.2268718  0.811179E-03  0.140E-01    1.12       1.0  T
   8   -215.2292141 -0.234223E-02  0.308E-02    1.11       1.0  T
   9   -215.2292918 -0.777220E-04  0.147E-02    1.11       1.0  T
  10   -215.2293059 -0.141430E-04  0.734E-03    1.12       1.3  T
  11   -215.2293104 -0.446305E-05  0.280E-03    1.12       3.3  T
  12   -215.2293104 -0.238299E-07  0.194E-03    1.12       4.8  T
  13   -215.2293105 -0.134859E-06  0.116E-03    1.12       8.1  T
  14   -215.2293106 -0.768246E-07  0.657E-04    1.12      14.2  T
  15   -215.2293106 -0.794572E-08  0.491E-04    1.12      19.0  T

   *** convergence criteria satisfied after 15 iterations ***

         #    Occupation            Energy/Eh            Energy/eV
      -------------------------------------------------------------
         1        2.0000           -0.6764942             -18.4083
       ...           ...                  ...                  ...
       191        2.0000           -0.3669237              -9.9845
       192        2.0000           -0.3669215              -9.9844
       193        2.0000           -0.3647187              -9.9245
       194        2.0000           -0.3623351              -9.8596
       195        2.0000           -0.3610188              -9.8238
       196        2.0000           -0.3610098              -9.8236
       197        2.0000           -0.3550692              -9.6619 (HOMO)
       198                         -0.3140867              -8.5467 (LUMO)
       199                         -0.3034521              -8.2574
       200                         -0.3002920              -8.1714
       201                         -0.3002096              -8.1691
       202                         -0.2991738              -8.1409
       ...                                ...                  ...
       379                          1.6325135              44.4230
      -------------------------------------------------------------
                  HL-Gap            0.0409825 Eh            1.1152 eV
             Fermi-level           -0.3345759 Eh           -9.1043 eV

 SCC (total)                   0 d,  0 h,  0 min,  0.675 sec
 SCC setup                      ...        0 min,  0.002 sec (  0.365%)
 Dispersion                     ...        0 min,  0.005 sec (  0.718%)
 classical contributions        ...        0 min,  0.001 sec (  0.108%)
 integral evaluation            ...        0 min,  0.046 sec (  6.792%)
 iterations                     ...        0 min,  0.459 sec ( 68.007%)
 molecular gradient             ...        0 min,  0.159 sec ( 23.500%)
 printout                       ...        0 min,  0.003 sec (  0.507%)

         :::::::::::::::::::::::::::::::::::::::::::::::::::::
         ::                     SUMMARY                     ::
         :::::::::::::::::::::::::::::::::::::::::::::::::::::
         :: total energy            -211.528881334757 Eh    ::
         :: gradient norm              0.000385059086 Eh/a0 ::
         :: HOMO-LUMO gap              1.115190954150 eV    ::
         ::.................................................::
         :: SCC energy              -215.229310627507 Eh    ::
         :: -> isotropic ES            0.062224875286 Eh    ::
         :: -> anisotropic ES          0.016494060461 Eh    ::
         :: -> anisotropic XC          0.089361615716 Eh    ::
         :: -> dispersion             -0.185869297520 Eh    ::
         :: repulsion energy           3.703089089695 Eh    ::
         :: add. restraining           0.000000000000 Eh    ::
         :: total charge               0.000000000003 e     ::
         :::::::::::::::::::::::::::::::::::::::::::::::::::::

           -------------------------------------------------
          |                Property Printout                |
           -------------------------------------------------

    * Orbital Energies and Occupations

         #    Occupation            Energy/Eh            Energy/eV
      -------------------------------------------------------------
         1        2.0000           -0.6764942             -18.4083
       ...           ...                  ...                  ...
       185        2.0000           -0.3712775             -10.1030
       186        2.0000           -0.3712693             -10.1028
       187        2.0000           -0.3681864             -10.0189
       188        2.0000           -0.3681617             -10.0182
       189        2.0000           -0.3669349              -9.9848
       190        2.0000           -0.3669272              -9.9846
       191        2.0000           -0.3669237              -9.9845
       192        2.0000           -0.3669215              -9.9844
       193        2.0000           -0.3647187              -9.9245
       194        2.0000           -0.3623351              -9.8596
       195        2.0000           -0.3610188              -9.8238
       196        2.0000           -0.3610098              -9.8236
       197        2.0000           -0.3550692              -9.6619 (HOMO)
       198                         -0.3140867              -8.5467 (LUMO)
       199                         -0.3034521              -8.2574
       200                         -0.3002920              -8.1714
       201                         -0.3002096              -8.1691
       202                         -0.2991738              -8.1409
       203                         -0.2991635              -8.1407
       204                         -0.2982829              -8.1167
       205                         -0.2982734              -8.1164
       206                         -0.2945160              -8.0142
       207                         -0.2703898              -7.3577
       208                         -0.2609598              -7.1011
       ...                                ...                  ...
       379                          1.6325135              44.4230
      -------------------------------------------------------------
                  HL-Gap            0.0409825 Eh            1.1152 eV
             Fermi-level           -0.3345759 Eh           -9.1043 eV

     #   Z          covCN         q      C6AA      α(0)
     1  28 Ni       3.020    -0.292   189.387    28.395
     2   6 C        3.024    -0.052    29.269     8.874
     3   6 C        3.021    -0.050    29.228     8.868
     4   6 C        3.186     0.074    25.920     8.308
     5   6 C        2.956     0.026    27.432     8.591
     6   6 C        3.185     0.074    25.921     8.308
     7   6 C        3.021    -0.050    29.227     8.868
     8   6 C        3.024    -0.052    29.269     8.874
     9   6 C        3.171     0.073    26.007     8.331
    10   7 N        2.624    -0.048    22.177     6.994
    11   6 C        2.904    -0.041    29.029     8.834
    12   6 C        3.168     0.074    25.998     8.331
    13   6 C        3.020    -0.051    29.248     8.871
    14   6 C        3.021    -0.051    29.249     8.871
    15   6 C        3.168     0.075    25.992     8.330
    16   7 N        2.625    -0.047    22.158     6.991
    17   6 C        2.904    -0.043    29.071     8.841
    18   6 C        3.168     0.075    25.992     8.330
    19   6 C        3.021    -0.051    29.249     8.871
    20   6 C        3.020    -0.051    29.248     8.871
    21   6 C        3.168     0.074    25.998     8.331
    22   7 N        2.625    -0.047    22.158     6.991
    23   6 C        2.904    -0.041    29.029     8.834
    24   6 C        3.171     0.073    26.006     8.330
    25   7 N        2.625    -0.048    22.175     6.994
    26   1 H        0.926     0.035     2.512     2.479
    27   1 H        0.926     0.037     2.487     2.466
    28   1 H        0.926     0.037     2.487     2.466
    29   1 H        0.926     0.035     2.513     2.479
    30   1 H        0.926     0.049     2.331     2.388
    31   1 H        0.926     0.036     2.506     2.475
    32   1 H        0.926     0.036     2.507     2.476
    33   1 H        0.926     0.048     2.339     2.392
    34   1 H        0.926     0.036     2.507     2.476
    35   1 H        0.926     0.036     2.506     2.475
    36   1 H        0.926     0.049     2.331     2.387
    37  28 Ni       3.020    -0.292   189.388    28.396
    38   6 C        3.023    -0.052    29.268     8.874
    39   6 C        3.021    -0.050    29.228     8.868
    40   6 C        3.185     0.074    25.921     8.308
    41   6 C        2.956     0.026    27.432     8.591
    42   6 C        3.185     0.074    25.920     8.308
    43   6 C        3.021    -0.050    29.227     8.868
    44   6 C        3.023    -0.052    29.269     8.874
    45   6 C        3.171     0.073    26.006     8.330
    46   7 N        2.624    -0.048    22.176     6.994
    47   6 C        2.904    -0.041    29.030     8.834
    48   6 C        3.168     0.074    25.998     8.331
    49   6 C        3.020    -0.051    29.248     8.871
    50   6 C        3.021    -0.051    29.249     8.871
    51   6 C        3.168     0.075    25.992     8.330
    52   7 N        2.625    -0.047    22.158     6.991
    53   6 C        2.904    -0.043    29.072     8.841
    54   6 C        3.168     0.075    25.992     8.330
    55   6 C        3.021    -0.051    29.249     8.871
    56   6 C        3.020    -0.051    29.248     8.871
    57   6 C        3.168     0.074    25.998     8.331
    58   7 N        2.625    -0.047    22.158     6.991
    59   6 C        2.904    -0.041    29.029     8.834
    60   6 C        3.171     0.073    26.006     8.331
    61   7 N        2.624    -0.048    22.177     6.994
    62   1 H        0.926     0.035     2.512     2.479
    63   1 H        0.926     0.037     2.486     2.466
    64   1 H        0.926     0.037     2.486     2.466
    65   1 H        0.926     0.035     2.512     2.479
    66   1 H        0.926     0.049     2.331     2.388
    67   1 H        0.926     0.036     2.506     2.475
    68   1 H        0.926     0.036     2.507     2.476
    69   1 H        0.926     0.048     2.339     2.392
    70   1 H        0.926     0.036     2.507     2.476
    71   1 H        0.926     0.036     2.506     2.475
    72   1 H        0.926     0.049     2.331     2.388
    73   6 C        1.992    -0.021    31.606     9.079
    74   6 C        1.963    -0.009    31.311     9.036
    75   6 C        1.963    -0.009    31.298     9.034
    76   6 C        1.992    -0.022    31.622     9.081
    77   6 C        1.992    -0.022    31.620     9.081
    78   6 C        1.963    -0.009    31.297     9.034
    79   6 C        1.963    -0.009    31.310     9.036
    80   6 C        1.992    -0.021    31.605     9.079
    81  28 Ni       3.015    -0.287   189.266    28.386
    82   6 C        3.024    -0.052    29.265     8.874
    83   6 C        3.022    -0.050    29.226     8.868
    84   6 C        3.187     0.074    25.906     8.304
    85   6 C        2.956     0.026    27.430     8.590
    86   6 C        3.187     0.074    25.906     8.305
    87   6 C        3.022    -0.050    29.225     8.868
    88   6 C        3.024    -0.052    29.265     8.874
    89   6 C        3.173     0.073    26.002     8.329
    90   7 N        2.623    -0.050    22.212     7.000
    91   6 C        2.904    -0.040    28.983     8.827
    92   6 C        3.173     0.073    26.002     8.329
    93   6 C        3.024    -0.052    29.265     8.874
    94   6 C        3.022    -0.050    29.226     8.868
    95   6 C        3.187     0.074    25.906     8.305
    96   7 N        2.623    -0.050    22.211     6.999
    97   6 C        2.956     0.026    27.430     8.590
    98   6 C        3.187     0.074    25.907     8.305
    99   6 C        3.022    -0.050    29.225     8.868
   100   6 C        3.024    -0.052    29.265     8.874
   101   6 C        3.173     0.073    26.002     8.329
   102   7 N        2.623    -0.050    22.212     7.000
   103   6 C        2.904    -0.040    28.982     8.827
   104   6 C        3.173     0.073    26.002     8.329
   105   7 N        2.623    -0.049    22.210     6.999
   106   1 H        0.926     0.035     2.512     2.479
   107   1 H        0.926     0.037     2.487     2.466
   108   1 H        0.926     0.037     2.487     2.466
   109   1 H        0.926     0.035     2.512     2.479
   110   1 H        0.926     0.050     2.324     2.384
   111   1 H        0.926     0.035     2.512     2.478
   112   1 H        0.926     0.037     2.486     2.466
   113   1 H        0.926     0.037     2.486     2.466
   114   1 H        0.926     0.035     2.512     2.479
   115   1 H        0.926     0.050     2.324     2.384

 Mol. C6AA /au·bohr⁶  :     257927.375595
 Mol. C8AA /au·bohr⁸  :    7567268.044996
 Mol. α(0) /au        :        837.711321


Wiberg/Mayer (AO) data.
largest (>0.10) Wiberg bond orders for each atom

 ---------------------------------------------------------------------------
     #   Z sym  total        # sym  WBO       # sym  WBO       # sym  WBO
 ---------------------------------------------------------------------------
     1  28 Ni   3.475 --    25 N    0.753    10 N    0.753    16 N    0.751
                            22 N    0.751
     2   6 C    3.953 --     3 C    1.646    24 C    1.170    26 H    0.972
     3   6 C    3.957 --     2 C    1.646     4 C    1.178    27 H    0.970
     4   6 C    3.917 --    25 N    1.262     5 C    1.253     3 C    1.178
     5   6 C    3.945 --     6 C    1.253     4 C    1.253    73 C    1.179
     6   6 C    3.917 --    10 N    1.262     5 C    1.253     7 C    1.178
     7   6 C    3.957 --     8 C    1.646     6 C    1.178    28 H    0.970
     8   6 C    3.953 --     7 C    1.646     9 C    1.170    29 H    0.972
     9   6 C    3.930 --    11 C    1.355    10 N    1.227     8 C    1.170
    10   7 N    3.577 --     6 C    1.262     9 C    1.227     1 Ni   0.753
    11   6 C    3.935 --     9 C    1.355    12 C    1.353    30 H    0.964
    12   6 C    3.935 --    11 C    1.353    16 N    1.239    13 C    1.161
    13   6 C    3.957 --    14 C    1.661    12 C    1.161    31 H    0.972
    14   6 C    3.955 --    13 C    1.661    15 C    1.161    32 H    0.972
    15   6 C    3.937 --    17 C    1.353    16 N    1.242    14 C    1.161
    16   7 N    3.571 --    15 C    1.242    12 C    1.239     1 Ni   0.751
    17   6 C    3.931 --    18 C    1.353    15 C    1.353    33 H    0.964
    18   6 C    3.937 --    17 C    1.353    22 N    1.242    19 C    1.161
    19   6 C    3.955 --    20 C    1.661    18 C    1.161    34 H    0.972
    20   6 C    3.957 --    19 C    1.661    21 C    1.161    35 H    0.972
    21   6 C    3.935 --    23 C    1.353    22 N    1.240    20 C    1.161
    22   7 N    3.571 --    18 C    1.242    21 C    1.240     1 Ni   0.751
    23   6 C    3.935 --    24 C    1.355    21 C    1.353    36 H    0.964
    24   6 C    3.930 --    23 C    1.355    25 N    1.227     2 C    1.170
    25   7 N    3.577 --     4 C    1.262    24 C    1.227     1 Ni   0.753
    26   1 H    0.998 --     2 C    0.972
    27   1 H    0.998 --     3 C    0.970
    28   1 H    0.998 --     7 C    0.970
    29   1 H    0.998 --     8 C    0.972
    30   1 H    0.996 --    11 C    0.964
    31   1 H    0.998 --    13 C    0.972
    32   1 H    0.998 --    14 C    0.972
    33   1 H    0.997 --    17 C    0.964
    34   1 H    0.998 --    19 C    0.972
    35   1 H    0.998 --    20 C    0.972
    36   1 H    0.996 --    23 C    0.964
    37  28 Ni   3.475 --    46 N    0.753    61 N    0.753    52 N    0.751
                            58 N    0.751
    38   6 C    3.953 --    39 C    1.646    60 C    1.170    62 H    0.972
    39   6 C    3.957 --    38 C    1.646    40 C    1.178    63 H    0.970
    40   6 C    3.917 --    61 N    1.262    41 C    1.253    39 C    1.178
    41   6 C    3.945 --    42 C    1.253    40 C    1.253    80 C    1.178
    42   6 C    3.917 --    46 N    1.262    41 C    1.253    43 C    1.178
    43   6 C    3.957 --    44 C    1.646    42 C    1.178    64 H    0.970
    44   6 C    3.953 --    43 C    1.646    45 C    1.170    65 H    0.972
    45   6 C    3.930 --    47 C    1.355    46 N    1.227    44 C    1.170
    46   7 N    3.577 --    42 C    1.262    45 C    1.227    37 Ni   0.753
    47   6 C    3.935 --    45 C    1.355    48 C    1.353    66 H    0.964
    48   6 C    3.935 --    47 C    1.353    52 N    1.240    49 C    1.161
    49   6 C    3.957 --    50 C    1.661    48 C    1.161    67 H    0.972
    50   6 C    3.955 --    49 C    1.661    51 C    1.161    68 H    0.972
    51   6 C    3.937 --    53 C    1.353    52 N    1.242    50 C    1.161
    52   7 N    3.571 --    51 C    1.242    48 C    1.240    37 Ni   0.751
    53   6 C    3.931 --    51 C    1.353    54 C    1.353    69 H    0.964
    54   6 C    3.937 --    53 C    1.353    58 N    1.242    55 C    1.161
    55   6 C    3.955 --    56 C    1.661    54 C    1.161    70 H    0.972
    56   6 C    3.957 --    55 C    1.661    57 C    1.161    71 H    0.972
    57   6 C    3.935 --    59 C    1.353    58 N    1.240    56 C    1.161
    58   7 N    3.571 --    54 C    1.242    57 C    1.240    37 Ni   0.751
    59   6 C    3.935 --    60 C    1.355    57 C    1.353    72 H    0.964
    60   6 C    3.930 --    59 C    1.355    61 N    1.227    38 C    1.170
    61   7 N    3.577 --    40 C    1.262    60 C    1.227    37 Ni   0.753
    62   1 H    0.998 --    38 C    0.972
    63   1 H    0.998 --    39 C    0.970
    64   1 H    0.998 --    43 C    0.970
    65   1 H    0.998 --    44 C    0.972
    66   1 H    0.996 --    47 C    0.964
    67   1 H    0.998 --    49 C    0.972
    68   1 H    0.998 --    50 C    0.972
    69   1 H    0.997 --    53 C    0.964
    70   1 H    0.998 --    55 C    0.972
    71   1 H    0.998 --    56 C    0.972
    72   1 H    0.996 --    59 C    0.964
    73   6 C    3.919 --    74 C    2.477     5 C    1.179    76 C    0.204
    74   6 C    3.931 --    73 C    2.477    75 C    1.301
    75   6 C    3.928 --    76 C    2.475    74 C    1.301
    76   6 C    3.921 --    75 C    2.475    85 C    1.181    73 C    0.204
    77   6 C    3.920 --    78 C    2.476    97 C    1.180    80 C    0.203
    78   6 C    3.928 --    77 C    2.476    79 C    1.300
    79   6 C    3.931 --    80 C    2.477    78 C    1.300
    80   6 C    3.919 --    79 C    2.477    41 C    1.178    77 C    0.203
    81  28 Ni   3.459 --   105 N    0.749    96 N    0.749   102 N    0.749
                            90 N    0.749
    82   6 C    3.953 --    83 C    1.644   104 C    1.171   106 H    0.972
    83   6 C    3.955 --    82 C    1.644    84 C    1.179   107 H    0.970
    84   6 C    3.918 --   105 N    1.264    85 C    1.250    83 C    1.179
    85   6 C    3.935 --    86 C    1.251    84 C    1.250    76 C    1.181
    86   6 C    3.918 --    90 N    1.264    85 C    1.251    87 C    1.179
    87   6 C    3.955 --    88 C    1.644    86 C    1.179   108 H    0.970
    88   6 C    3.953 --    87 C    1.644    89 C    1.171   109 H    0.972
    89   6 C    3.929 --    91 C    1.354    90 N    1.226    88 C    1.171
    90   7 N    3.568 --    86 C    1.264    89 C    1.226    81 Ni   0.749
    91   6 C    3.930 --    92 C    1.354    89 C    1.354   110 H    0.963
    92   6 C    3.929 --    91 C    1.354    96 N    1.226    93 C    1.171
    93   6 C    3.954 --    94 C    1.644    92 C    1.171   111 H    0.972
    94   6 C    3.955 --    93 C    1.644    95 C    1.179   112 H    0.970
    95   6 C    3.918 --    96 N    1.264    97 C    1.251    94 C    1.179
    96   7 N    3.568 --    95 C    1.264    92 C    1.226    81 Ni   0.749
    97   6 C    3.934 --    98 C    1.251    95 C    1.251    77 C    1.180
    98   6 C    3.918 --   102 N    1.264    97 C    1.251    99 C    1.179
    99   6 C    3.955 --   100 C    1.644    98 C    1.179   113 H    0.970
   100   6 C    3.954 --    99 C    1.644   101 C    1.171   114 H    0.972
   101   6 C    3.929 --   103 C    1.354   102 N    1.226   100 C    1.171
   102   7 N    3.568 --    98 C    1.264   101 C    1.226    81 Ni   0.749
   103   6 C    3.930 --   104 C    1.355   101 C    1.354   115 H    0.963
   104   6 C    3.929 --   103 C    1.355   105 N    1.225    82 C    1.171
   105   7 N    3.568 --    84 C    1.264   104 C    1.225    81 Ni   0.749
   106   1 H    0.998 --    82 C    0.972
   107   1 H    0.998 --    83 C    0.970
   108   1 H    0.998 --    87 C    0.970
   109   1 H    0.998 --    88 C    0.972
   110   1 H    0.996 --    91 C    0.963
   111   1 H    0.998 --    93 C    0.972
   112   1 H    0.998 --    94 C    0.970
   113   1 H    0.998 --    99 C    0.970
   114   1 H    0.998 --   100 C    0.972
   115   1 H    0.996 --   103 C    0.963
 ---------------------------------------------------------------------------

Topologies differ in total number of bonds
Writing topology from bond orders to xtbtopo.mol

molecular dipole:
                 x           y           z       tot (Debye)
 q only:        0.001      -0.001      -0.002
   full:        0.001      -0.001      -0.002       0.006
molecular quadrupole (traceless):
                xx          xy          yy          xz          yz          zz
 q only:       35.368       0.140       9.520      -0.197       1.211     -44.888
  q+dip:       70.522       0.248      19.887      -0.196       2.474     -90.408
   full:       46.698       0.211       9.416      -0.175       1.446     -56.114


           -------------------------------------------------
          | TOTAL ENERGY             -211.528881334757 Eh   |
          | GRADIENT NORM               0.000385059086 Eh/α |
          | HOMO-LUMO GAP               1.115190954150 eV   |
           -------------------------------------------------

------------------------------------------------------------------------
 * finished run on 2021/11/20 at 15:54:48.877     
------------------------------------------------------------------------
 total:
 * wall-time:     0 d,  0 h,  0 min,  0.726 sec
 *  cpu-time:     0 d,  0 h,  0 min,  0.726 sec
 * ratio c/w:     1.000 speedup
 SCF:
 * wall-time:     0 d,  0 h,  0 min,  0.676 sec
 *  cpu-time:     0 d,  0 h,  0 min,  0.676 sec
 * ratio c/w:     1.000 speedup

