      -----------------------------------------------------------      
     |                   =====================                   |     
     |                           x T B                           |     
     |                   =====================                   |     
     |                         S. Grimme                         |     
     |          Mulliken Center for Theoretical Chemistry        |     
     |                    University of Bonn                     |     
      -----------------------------------------------------------      

   * xtb version 6.4.1 (bd6e46d) compiled by 'conda@4901f00b25ba' on 2021-06-10

   xtb is free software: you can redistribute it and/or modify it under
   the terms of the GNU Lesser General Public License as published by
   the Free Software Foundation, either version 3 of the License, or
   (at your option) any later version.
   
   xtb is distributed in the hope that it will be useful,
   but WITHOUT ANY WARRANTY; without even the implied warranty of
   MERCHANTABILITY or FITNESS FOR A PARTICULAR PURPOSE.  See the
   GNU Lesser General Public License for more details.
   
   Cite this work as:
   * C. Bannwarth, E. Caldeweyher, S. Ehlert, A. Hansen, P. Pracht,
     J. Seibert, S. Spicher, S. Grimme, WIREs Comput. Mol. Sci., 2020, 11,
     e01493. DOI: 10.1002/wcms.1493
   
   for GFN2-xTB:
   * C. Bannwarth, S. Ehlert and S. Grimme., J. Chem. Theory Comput., 2019,
     15, 1652-1671. DOI: 10.1021/acs.jctc.8b01176
   for GFN1-xTB:
   * S. Grimme, C. Bannwarth, P. Shushkov, J. Chem. Theory Comput., 2017,
     13, 1989-2009. DOI: 10.1021/acs.jctc.7b00118
   for GFN0-xTB:
   * P. Pracht, E. Caldeweyher, S. Ehlert, S. Grimme, ChemRxiv, 2019, preprint.
     DOI: 10.26434/chemrxiv.8326202.v1
   for GFN-FF:
   * S. Spicher and S. Grimme, Angew. Chem. Int. Ed., 2020, 59, 15665-15673.
     DOI: 10.1002/anie.202004239
   
   for DFT-D4:
   * E. Caldeweyher, C. Bannwarth and S. Grimme, J. Chem. Phys., 2017,
     147, 034112. DOI: 10.1063/1.4993215
   * E. Caldeweyher, S. Ehlert, A. Hansen, H. Neugebauer, S. Spicher,
     C. Bannwarth and S. Grimme, J. Chem. Phys., 2019, 150, 154122.
     DOI: 10.1063/1.5090222
   * E. Caldeweyher, J.-M. Mewes, S. Ehlert and S. Grimme, Phys. Chem. Chem. Phys.
     2020, 22, 8499-8512. DOI: 10.1039/D0CP00502A
   
   for sTDA-xTB:
   * S. Grimme and C. Bannwarth, J. Chem. Phys., 2016, 145, 054103.
     DOI: 10.1063/1.4959605
   
   in the mass-spec context:
   * V. Asgeirsson, C. Bauer and S. Grimme, Chem. Sci., 2017, 8, 4879.
     DOI: 10.1039/c7sc00601b
   * J. Koopman and S. Grimme, ACS Omega 2019, 4, 12, 15120-15133.
     DOI: 10.1021/acsomega.9b02011
   
   for metadynamics refer to:
   * S. Grimme, J. Chem. Theory Comput., 2019, 155, 2847-2862
     DOI: 10.1021/acs.jctc.9b00143
   
   for SPH calculations refer to:
   * S. Spicher and S. Grimme, J. Chem. Theory Comput., 2021, 17, 1701-1714
     DOI: 10.1021/acs.jctc.0c01306
   
   with help from (in alphabetical order)
   P. Atkinson, C. Bannwarth, F. Bohle, G. Brandenburg, E. Caldeweyher
   M. Checinski, S. Dohm, S. Ehlert, S. Ehrlich, I. Gerasimov, J. Koopman
   C. Lavigne, S. Lehtola, F. März, M. Müller, F. Musil, H. Neugebauer
   J. Pisarek, C. Plett, P. Pracht, J. Seibert, P. Shushkov, S. Spicher
   M. Stahn, M. Steiner, T. Strunk, J. Stückrath, T. Rose, and J. Unsleber
   
 * started run on 2021/11/20 at 05:20:02.055     

           -------------------------------------------------
          |                Calculation Setup                |
           -------------------------------------------------

          program call               : /home/jeff/miniconda3/bin/xtb input_structure_1.xyz --gfn 2 --ohess normal --parallel 1 --etemp 300 --chrg 0 --uhf 0 -I det_control.in
          hostname                   : jelfscompute1
          coordinate file            : input_structure_1.xyz
          omp threads                :                     1
          number of atoms            :                   242
          number of electrons        :                   842
          charge                     :                     0
          spin                       :                   0.0
          first test random number   :      0.56275679501293

   ID    Z sym.   atoms
    1   28 Ni     1, 37, 103, 138, 173, 208
    2    6 C      2-9, 11-15, 17-21, 23, 24, 38-45, 47-51, 53-57, 59, 60,
                  73-102, 104-111, 113-117, 119-123, 125, 126, 139-146,
                  148-152, 154-158, 160, 161, 174-181, 183-187, 189-193, 195,
                  196, 209-216, 218-222, 224-228, 230, 231
    3    7 N      10, 16, 22, 25, 46, 52, 58, 61, 112, 118, 124, 127, 147,
                  153, 159, 162, 182, 188, 194, 197, 217, 223, 229, 232
    4    1 H      26-36, 62-72, 128-137, 163-172, 198-207, 233-242

molecular fragmentation (1/2 indicates fragments):
111111111111111111111111111111111111222222222222222222222222222222222222
222222222222222222222222222222222222222222222222222222222222222222222222
222222222222222222222222222222222222222222222222222222222222222222222222
22222222222222222222222222
# atoms in fragment 1/2:    36   206
 fragment masses (1/2) :      366.02     2186.40
CMA distance (Bohr)    :  90.073
constraining FC (au)   :  0.0500

           -------------------------------------------------
          |                 G F N 2 - x T B                 |
           -------------------------------------------------

        Reference                      10.1021/acs.jctc.8b01176
      * Hamiltonian:
        H0-scaling (s, p, d)           1.850000    2.230000    2.230000
        zeta-weighting                 0.500000
      * Dispersion:
        s8                             2.700000
        a1                             0.520000
        a2                             5.000000
        s9                             5.000000
      * Repulsion:
        kExp                           1.500000    1.000000
        rExp                           1.000000
      * Coulomb:
        alpha                          2.000000
        third order                    shell-resolved
        anisotropic                    true
        a3                             3.000000
        a5                             4.000000
        cn-shift                       1.200000
        cn-exp                         4.000000
        max-rad                        5.000000


          ...................................................
          :                      SETUP                      :
          :.................................................:
          :  # basis functions                 818          :
          :  # atomic orbitals                 812          :
          :  # shells                          428          :
          :  # electrons                       842          :
          :  max. iterations                   250          :
          :  Hamiltonian                  GFN2-xTB          :
          :  restarted?                      false          :
          :  GBSA solvation                  false          :
          :  PC potential                    false          :
          :  electronic temp.          300.0000000     K    :
          :  accuracy                    1.0000000          :
          :  -> integral cutoff          0.2500000E+02      :
          :  -> integral neglect         0.1000000E-07      :
          :  -> SCF convergence          0.1000000E-05 Eh   :
          :  -> wf. convergence          0.1000000E-03 e    :
          :  Broyden damping             0.4000000          :
          ...................................................

 iter      E             dE          RMSdq      gap      omega  full diag
   1   -457.1034274 -0.457103E+03  0.917E+00    0.66       0.0  T
   2   -439.1127502  0.179907E+02  0.778E+00    0.03       1.0  T
   3   -174.6624665  0.264450E+03  0.155E+01    0.06       1.0  T
   4    -74.8294388  0.998330E+02  0.161E+01    0.03       1.0  T
   5   -343.8924283 -0.269063E+03  0.827E+00    0.02       1.0  T
   6   -128.8357168  0.215057E+03  0.138E+01    0.05       1.0  T
   7   -348.1891546 -0.219353E+03  0.847E+00    0.09       1.0  T
   8   -450.0084631 -0.101819E+03  0.493E+00    0.07       1.0  T
   9   -440.5269553  0.948151E+01  0.464E+00    0.10       1.0  T
  10   -449.0396883 -0.851273E+01  0.412E+00    0.06       1.0  T
  11   -433.4421265  0.155976E+02  0.524E+00    0.04       1.0  T
  12   -439.9120213 -0.646989E+01  0.486E+00    0.08       1.0  T
  13   -445.2079448 -0.529592E+01  0.416E+00    0.07       1.0  T
  14   -442.2936246  0.291432E+01  0.598E+00    0.02       1.0  T
  15   -430.5551893  0.117384E+02  0.636E+00    0.05       1.0  T
  16   -430.5083283  0.468610E-01  0.639E+00    0.04       1.0  T
  17   -434.8329940 -0.432467E+01  0.630E+00    0.12       1.0  T
  18   -435.5797320 -0.746738E+00  0.626E+00    0.09       1.0  T
  19   -436.0591492 -0.479417E+00  0.619E+00    0.10       1.0  T
  20   -439.5612692 -0.350212E+01  0.581E+00    0.02       1.0  T
  21   -440.1422796 -0.581010E+00  0.579E+00    0.04       1.0  T
  22   -440.1665827 -0.243032E-01  0.579E+00    0.04       1.0  T
  23   -440.6666152 -0.500033E+00  0.580E+00    0.05       1.0  T
  24   -444.1016740 -0.343506E+01  0.526E+00    0.01       1.0  T
  25   -443.4867751  0.614899E+00  0.532E+00    0.00       1.0  T
  26   -446.0002366 -0.251346E+01  0.467E+00    0.05       1.0  T
  27   -452.1493302 -0.614909E+01  0.512E+00    0.01       1.0  T
  28   -450.9499584  0.119937E+01  0.544E+00    0.06       1.0  T
  29   -450.5735223  0.376436E+00  0.551E+00    0.08       1.0  T
  30   -452.1212890 -0.154777E+01  0.506E+00    0.07       1.0  T
  31   -447.0772097  0.504408E+01  0.627E+00    0.01       1.0  T
  32   -441.9139989  0.516321E+01  0.701E+00    0.01       1.0  T
  33   -437.2565167  0.465748E+01  0.788E+00    0.13       1.0  T
  34   -437.6911975 -0.434681E+00  0.767E+00    0.04       1.0  T
  35   -438.9018704 -0.121067E+01  0.723E+00    0.01       1.0  T
  36   -436.7152035  0.218667E+01  0.763E+00    0.10       1.0  T
  37   -446.3955744 -0.968037E+01  0.563E+00    0.03       1.0  T
  38   -444.6539975  0.174158E+01  0.585E+00    0.08       1.0  T
  39   -448.5439861 -0.388999E+01  0.517E+00    0.10       1.0  T
  40   -446.4173931  0.212659E+01  0.536E+00    0.06       1.0  T
  41   -455.7675723 -0.935018E+01  0.402E+00    0.01       1.0  T
  42   -455.7723669 -0.479458E-02  0.401E+00    0.01       1.0  T
  43   -455.1615396  0.610827E+00  0.403E+00    0.01       1.0  T
  44   -454.5110630  0.650477E+00  0.431E+00    0.02       1.0  T
  45   -455.4958281 -0.984765E+00  0.326E+00    0.08       1.0  T
  46   -455.0951435  0.400685E+00  0.352E+00    0.06       1.0  T
  47   -454.8214703  0.273673E+00  0.356E+00    0.05       1.0  T
  48   -454.7995026  0.219677E-01  0.370E+00    0.04       1.0  T
  49   -455.1099719 -0.310469E+00  0.358E+00    0.04       1.0  T
  50   -455.1015363  0.843560E-02  0.357E+00    0.04       1.0  T
  51   -453.3401457  0.176139E+01  0.403E+00    0.01       1.0  T
  52   -452.9029832  0.437162E+00  0.420E+00    0.01       1.0  T
  53   -451.2133477  0.168964E+01  0.456E+00    0.06       1.0  T
  54   -449.2168056  0.199654E+01  0.483E+00    0.08       1.0  T
  55   -449.2230582 -0.625262E-02  0.483E+00    0.08       1.0  T
  56   -450.0216860 -0.798628E+00  0.460E+00    0.03       1.0  T
  57   -449.2271186  0.794567E+00  0.478E+00    0.02       1.0  T
  58   -449.6124990 -0.385380E+00  0.472E+00    0.01       1.0  T
  59   -449.6053972  0.710178E-02  0.473E+00    0.01       1.0  T
  60   -448.5689033  0.103649E+01  0.480E+00    0.07       1.0  T
  61   -447.9668337  0.602070E+00  0.430E+00    0.00       1.0  T
  62   -447.9636212  0.321248E-02  0.419E+00    0.00       1.0  T
  63   -449.9966798 -0.203306E+01  0.370E+00    0.00       1.0  T
  64   -447.5481186  0.244856E+01  0.427E+00    0.00       1.0  T
  65   -445.0513359  0.249678E+01  0.449E+00    0.02       1.0  T
  66   -445.5939104 -0.542574E+00  0.444E+00    0.02       1.0  T
  67   -447.9015124 -0.230760E+01  0.410E+00    0.03       1.0  T
  68   -447.8570854  0.444270E-01  0.412E+00    0.03       1.0  T
  69   -447.7277917  0.129294E+00  0.414E+00    0.03       1.0  T
  70   -447.3387721  0.389020E+00  0.420E+00    0.03       1.0  T
  71   -447.3255254  0.132467E-01  0.418E+00    0.03       1.0  T
  72   -446.9454375  0.380088E+00  0.424E+00    0.03       1.0  T
  73   -449.1373629 -0.219193E+01  0.363E+00    0.01       1.0  T
  74   -449.5648382 -0.427475E+00  0.348E+00    0.01       1.0  T
  75   -451.8351196 -0.227028E+01  0.344E+00    0.02       1.0  T
  76   -449.5698525  0.226527E+01  0.340E+00    0.01       1.0  T
  77   -450.4998144 -0.929962E+00  0.327E+00    0.01       1.0  T
  78   -450.4959868  0.382762E-02  0.327E+00    0.01       1.0  T
  79   -452.0304740 -0.153449E+01  0.389E+00    0.03       1.0  T
  80   -454.1241280 -0.209365E+01  0.327E+00    0.01       1.0  T
  81   -452.5485847  0.157554E+01  0.372E+00    0.03       1.0  T
  82   -452.6360571 -0.874724E-01  0.365E+00    0.03       1.0  T
  83   -453.9743653 -0.133831E+01  0.380E+00    0.01       1.0  T
  84   -455.0028344 -0.102847E+01  0.376E+00    0.00       1.0  T
  85   -454.0198959  0.982938E+00  0.366E+00    0.02       1.0  T
  86   -454.8712952 -0.851399E+00  0.356E+00    0.01       1.0  T
  87   -454.9181091 -0.468139E-01  0.353E+00    0.01       1.0  T
  88   -455.2283501 -0.310241E+00  0.343E+00    0.01       1.0  T
  89   -455.8258176 -0.597467E+00  0.302E+00    0.01       1.0  T
  90   -456.7973757 -0.971558E+00  0.234E+00    0.03       1.0  T
  91   -457.2741153 -0.476740E+00  0.196E+00    0.01       1.0  T
  92   -457.2162124  0.579029E-01  0.207E+00    0.02       1.0  T
  93   -457.3352513 -0.119039E+00  0.165E+00    0.05       1.0  T
  94   -457.7274421 -0.392191E+00  0.152E+00    0.04       1.0  T
  95   -457.8544050 -0.126963E+00  0.142E+00    0.02       1.0  T
  96   -457.9149591 -0.605541E-01  0.138E+00    0.01       1.0  T
  97   -458.1166586 -0.201700E+00  0.129E+00    0.02       1.0  T
  98   -458.2208604 -0.104202E+00  0.123E+00    0.05       1.0  T
  99   -458.2374893 -0.166289E-01  0.115E+00    0.04       1.0  T
 100   -457.8665366  0.370953E+00  0.162E+00    0.05       1.0  T
 101   -457.9199850 -0.534484E-01  0.159E+00    0.05       1.0  T
 102   -457.8136654  0.106320E+00  0.166E+00    0.07       1.0  T
 103   -457.9093399 -0.956745E-01  0.136E+00    0.02       1.0  T
 104   -457.7819906  0.127349E+00  0.147E+00    0.01       1.0  T
 105   -457.7423513  0.396393E-01  0.154E+00    0.04       1.0  T
 106   -457.7410209  0.133039E-02  0.154E+00    0.04       1.0  T
 107   -457.7201498  0.208711E-01  0.164E+00    0.06       1.0  T
 108   -457.8292125 -0.109063E+00  0.167E+00    0.08       1.0  T
 109   -458.2603883 -0.431176E+00  0.121E+00    0.00       1.0  T
 110   -458.4217949 -0.161407E+00  0.914E-01    0.03       1.0  T
 111   -458.5038719 -0.820770E-01  0.786E-01    0.06       1.0  T
 112   -458.5136185 -0.974656E-02  0.790E-01    0.06       1.0  T
 113   -458.4602174  0.534011E-01  0.869E-01    0.03       1.0  T
 114   -458.5700680 -0.109851E+00  0.708E-01    0.16       1.0  T
 115   -458.5715664 -0.149837E-02  0.707E-01    0.15       1.0  T
 116   -458.5716020 -0.356901E-04  0.707E-01    0.15       1.0  T
 117   -458.5753033 -0.370122E-02  0.680E-01    0.13       1.0  T
 118   -458.5124891  0.628141E-01  0.847E-01    0.06       1.0  T
 119   -458.5504249 -0.379357E-01  0.744E-01    0.10       1.0  T
 120   -458.3624037  0.188021E+00  0.111E+00    0.02       1.0  T
 121   -458.3589053  0.349836E-02  0.110E+00    0.02       1.0  T
 122   -458.4096209 -0.507156E-01  0.100E+00    0.03       1.0  T
 123   -458.2045866  0.205034E+00  0.131E+00    0.00       1.0  T
 124   -458.2827334 -0.781468E-01  0.120E+00    0.01       1.0  T
 125   -458.0843427  0.198391E+00  0.146E+00    0.02       1.0  T
 126   -458.1545270 -0.701843E-01  0.136E+00    0.01       1.0  T
 127   -458.2142663 -0.597393E-01  0.127E+00    0.00       1.0  T
 128   -458.2233676 -0.910133E-02  0.126E+00    0.00       1.0  T
 129   -458.0930344  0.130333E+00  0.141E+00    0.01       1.0  T
 130   -458.0880303  0.500413E-02  0.141E+00    0.01       1.0  T
 131   -458.2418365 -0.153806E+00  0.119E+00    0.01       1.0  T
 132   -458.4420254 -0.200189E+00  0.725E-01    0.05       1.0  T
 133   -458.4743887 -0.323633E-01  0.675E-01    0.07       1.0  T
 134   -458.4820936 -0.770490E-02  0.659E-01    0.07       1.0  T
 135   -458.4778831  0.421050E-02  0.673E-01    0.07       1.0  T
 136   -458.5126188 -0.347357E-01  0.619E-01    0.09       1.0  T
 137   -458.4608105  0.518083E-01  0.702E-01    0.06       1.0  T
 138   -458.5098663 -0.490558E-01  0.599E-01    0.08       1.0  T
 139   -458.5304821 -0.206158E-01  0.546E-01    0.10       1.0  T
 140   -458.5590215 -0.285394E-01  0.480E-01    0.14       1.0  T
 141   -458.5622238 -0.320234E-02  0.456E-01    0.14       1.0  T
 142   -458.5631156 -0.891827E-03  0.444E-01    0.15       1.0  T
 143   -458.5625679  0.547732E-03  0.443E-01    0.14       1.0  T
 144   -458.5617789  0.788978E-03  0.439E-01    0.14       1.0  T
 145   -458.5614653  0.313580E-03  0.419E-01    0.13       1.0  T
 146   -458.5631206 -0.165527E-02  0.398E-01    0.12       1.0  T
 147   -458.5592345  0.388607E-02  0.391E-01    0.11       1.0  T
 148   -458.5652487 -0.601420E-02  0.383E-01    0.11       1.0  T
 149   -458.5789541 -0.137054E-01  0.353E-01    0.14       1.0  T
 150   -458.5877002 -0.874612E-02  0.331E-01    0.16       1.0  T
 151   -458.5934667 -0.576647E-02  0.318E-01    0.16       1.0  T
 152   -458.5951706 -0.170388E-02  0.313E-01    0.15       1.0  T
 153   -458.5970544 -0.188387E-02  0.307E-01    0.15       1.0  T
 154   -458.5981939 -0.113944E-02  0.305E-01    0.15       1.0  T
 155   -458.6001689 -0.197503E-02  0.299E-01    0.15       1.0  T
 156   -458.6029126 -0.274374E-02  0.286E-01    0.14       1.0  T
 157   -458.6043890 -0.147637E-02  0.278E-01    0.14       1.0  T
 158   -458.6065180 -0.212895E-02  0.268E-01    0.15       1.0  T
 159   -458.6071091 -0.591165E-03  0.265E-01    0.14       1.0  T
 160   -458.6074390 -0.329863E-03  0.262E-01    0.14       1.0  T
 161   -458.6079063 -0.467315E-03  0.254E-01    0.13       1.0  T
 162   -458.6085268 -0.620537E-03  0.248E-01    0.13       1.0  T
 163   -458.6089110 -0.384166E-03  0.246E-01    0.12       1.0  T
 164   -458.6094373 -0.526290E-03  0.241E-01    0.13       1.0  T
 165   -458.6095760 -0.138660E-03  0.240E-01    0.13       1.0  T
 166   -458.6106278 -0.105188E-02  0.231E-01    0.13       1.0  T
 167   -458.6120163 -0.138846E-02  0.217E-01    0.14       1.0  T
 168   -458.6132995 -0.128320E-02  0.206E-01    0.14       1.0  T
 169   -458.6140876 -0.788106E-03  0.194E-01    0.16       1.0  T
 170   -458.6151235 -0.103594E-02  0.183E-01    0.16       1.0  T
 171   -458.6169964 -0.187291E-02  0.163E-01    0.15       1.0  T
 172   -458.6190516 -0.205517E-02  0.139E-01    0.14       1.0  T
 173   -458.6199759 -0.924241E-03  0.127E-01    0.14       1.0  T
 174   -458.6206596 -0.683707E-03  0.118E-01    0.14       1.0  T
 175   -458.6211617 -0.502145E-03  0.110E-01    0.13       1.0  T
 176   -458.6211820 -0.202788E-04  0.109E-01    0.14       1.0  T
 177   -458.6220751 -0.893066E-03  0.858E-02    0.11       1.0  T
 178   -458.6219724  0.102604E-03  0.836E-02    0.11       1.0  T
 179   -458.6225047 -0.532219E-03  0.802E-02    0.12       1.0  T
 180   -458.6224172  0.875082E-04  0.825E-02    0.12       1.0  T
 181   -458.6220399  0.377308E-03  0.922E-02    0.13       1.0  T
 182   -458.6223240 -0.284112E-03  0.842E-02    0.13       1.0  T
 183   -458.6224998 -0.175886E-03  0.780E-02    0.13       1.0  T
 184   -458.6224483  0.515926E-04  0.782E-02    0.13       1.0  T
 185   -458.6226667 -0.218409E-03  0.706E-02    0.13       1.0  T
 186   -458.6227939 -0.127253E-03  0.639E-02    0.13       1.0  T
 187   -458.6231037 -0.309780E-03  0.510E-02    0.12       1.0  T
 188   -458.6231833 -0.795983E-04  0.436E-02    0.12       1.0  T
 189   -458.6232637 -0.803978E-04  0.391E-02    0.12       1.0  T
 190   -458.6233067 -0.430148E-04  0.336E-02    0.12       1.0  T
 191   -458.6233664 -0.597311E-04  0.297E-02    0.12       1.0  T
 192   -458.6233890 -0.225562E-04  0.277E-02    0.12       1.0  T
 193   -458.6233757  0.133434E-04  0.259E-02    0.12       1.0  T
 194   -458.6233871 -0.114944E-04  0.263E-02    0.12       1.0  T
 195   -458.6232528  0.134309E-03  0.307E-02    0.11       1.0  T
 196   -458.6233374 -0.845310E-04  0.271E-02    0.12       1.0  T
 197   -458.6232815  0.558915E-04  0.291E-02    0.11       1.0  T
 198   -458.6233528 -0.713561E-04  0.248E-02    0.12       1.0  T
 199   -458.6233821 -0.292248E-04  0.228E-02    0.12       1.0  T
 200   -458.6234016 -0.195142E-04  0.205E-02    0.12       1.0  T
 201   -458.6234113 -0.967838E-05  0.190E-02    0.12       1.0  T
 202   -458.6234065  0.472263E-05  0.182E-02    0.12       1.0  T
 203   -458.6233984  0.817394E-05  0.174E-02    0.12       1.0  T
 204   -458.6233966  0.178108E-05  0.164E-02    0.12       1.0  T
 205   -458.6233967 -0.114558E-06  0.156E-02    0.12       1.0  T
 206   -458.6234019 -0.518533E-05  0.145E-02    0.12       1.0  T
 207   -458.6234034 -0.150542E-05  0.140E-02    0.12       1.0  T
 208   -458.6234117 -0.836444E-05  0.130E-02    0.12       1.0  T
 209   -458.6234145 -0.273097E-05  0.122E-02    0.12       1.0  T
 210   -458.6234294 -0.149481E-04  0.108E-02    0.12       1.0  T
 211   -458.6234345 -0.512125E-05  0.102E-02    0.12       1.0  T
 212   -458.6234476 -0.130734E-04  0.881E-03    0.12       1.0  T
 213   -458.6234524 -0.475124E-05  0.821E-03    0.12       1.0  T
 214   -458.6234578 -0.544156E-05  0.728E-03    0.12       1.0  T
 215   -458.6234624 -0.457257E-05  0.639E-03    0.12       1.0  T
 216   -458.6234659 -0.349904E-05  0.560E-03    0.12       1.1  T
 217   -458.6234671 -0.117189E-05  0.548E-03    0.12       1.2  T
 218   -458.6234693 -0.227374E-05  0.479E-03    0.12       1.3  T
 219   -458.6234705 -0.115810E-05  0.430E-03    0.12       1.5  T
 220   -458.6234727 -0.216780E-05  0.306E-03    0.12       2.1  T
 221   -458.6234736 -0.935179E-06  0.233E-03    0.12       2.8  T
 222   -458.6234738 -0.251746E-06  0.208E-03    0.12       3.1  T
 223   -458.6234738  0.531112E-07  0.212E-03    0.12       3.0  T
 224   -458.6234739 -0.106189E-06  0.198E-03    0.12       3.3  T
 225   -458.6234739 -0.346504E-07  0.184E-03    0.12       3.5  T
 226   -458.6234742 -0.281734E-06  0.147E-03    0.12       4.4  T
 227   -458.6234746 -0.343847E-06  0.107E-03    0.12       6.0  T
 228   -458.6234747 -0.132640E-06  0.828E-04    0.12       7.8  T
 229   -458.6234747 -0.367863E-07  0.708E-04    0.12       9.1  T

   *** convergence criteria satisfied after 229 iterations ***

         #    Occupation            Energy/Eh            Energy/eV
      -------------------------------------------------------------
         1        2.0000           -0.6902462             -18.7826
       ...           ...                  ...                  ...
       415        1.9968           -0.3523379              -9.5876
       416        1.9953           -0.3519749              -9.5777
       417        1.9941           -0.3517594              -9.5719
       418        1.9732           -0.3503109              -9.5324
       419        1.9637           -0.3500203              -9.5245
       420        1.8936           -0.3489635              -9.4958
       421        1.8264           -0.3484638              -9.4822 (HOMO)
       422        0.1866           -0.3440676              -9.3626 (LUMO)
       423        0.1764           -0.3440093              -9.3610
       424        0.0000           -0.3325948              -9.0504
       425        0.0000           -0.3322938              -9.0422
       426        0.0000           -0.3322824              -9.0419
       ...           ...                  ...                  ...
       812                          2.2635308              61.5938
      -------------------------------------------------------------
                  HL-Gap            0.0043963 Eh            0.1196 eV
             Fermi-level           -0.3462282 Eh           -9.4213 eV

 SCC (total)                   0 d,  0 h,  0 min, 45.760 sec
 SCC setup                      ...        0 min,  0.011 sec (  0.023%)
 Dispersion                     ...        0 min,  0.022 sec (  0.047%)
 classical contributions        ...        0 min,  0.002 sec (  0.004%)
 integral evaluation            ...        0 min,  0.170 sec (  0.371%)
 iterations                     ...        0 min, 45.116 sec ( 98.594%)
 molecular gradient             ...        0 min,  0.414 sec (  0.905%)
 printout                       ...        0 min,  0.026 sec (  0.056%)

         :::::::::::::::::::::::::::::::::::::::::::::::::::::
         ::                     SUMMARY                     ::
         :::::::::::::::::::::::::::::::::::::::::::::::::::::
         :: total energy            -449.196065045775 Eh    ::
         :: gradient norm              2.012023699416 Eh/a0 ::
         :: HOMO-LUMO gap              0.119628106508 eV    ::
         ::.................................................::
         :: SCC energy              -458.623474723778 Eh    ::
         :: -> isotropic ES            0.215143699700 Eh    ::
         :: -> anisotropic ES          0.029728712217 Eh    ::
         :: -> anisotropic XC          0.245026273306 Eh    ::
         :: -> dispersion             -0.379824746349 Eh    ::
         :: repulsion energy           9.428423295629 Eh    ::
         :: add. restraining           0.000000000000 Eh    ::
         :: total charge               0.000000000029 e     ::
         :::::::::::::::::::::::::::::::::::::::::::::::::::::

      ----------------------------------------------------------- 
     |                   =====================                   |
     |                        A N C O P T                        |
     |                   =====================                   |
     |               Approximate Normal Coordinate               |
     |                Rational Function Optimizer                |
      ----------------------------------------------------------- 

          ...................................................
          :                      SETUP                      :
          :.................................................:
          :   optimization level            normal          :
          :   max. optcycles                   726          :
          :   ANC micro-cycles                  20          :
          :   degrees of freedom               720          :
          :.................................................:
          :   RF solver                   davidson          :
          :   write xtbopt.log                true          :
          :   linear?                        false          :
          :   energy convergence         0.5000000E-05 Eh   :
          :   grad. convergence          0.1000000E-02 Eh/α :
          :   maximium RF displ.         1.0000000          :
          :   Hlow (freq-cutoff)         0.1000000E-01      :
          :   Hmax (freq-cutoff)         5.0000000          :
          :   S6 in model hess.         20.0000000          :
          ...................................................

generating ANC from model Hessian ...
Using Lindh-Hessian (1995)
 Shifting diagonal of input Hessian by    1.0134354595250760E-002
 Lowest  eigenvalues of input Hessian
    0.010000    0.010034    0.010100    0.010100    0.010100    0.010101
    0.010106    0.010110    0.010115    0.010117    0.010118    0.010122
    0.010124    0.010127    0.010129    0.010129    0.010132    0.000000
 Highest eigenvalues
    3.325873    3.327672    3.495154    3.495769    3.495770    3.495772


........................................................................
.............................. CYCLE    1 ..............................
........................................................................
   1   -458.6234748 -0.458623E+03  0.579E-04    0.12       0.0  T
   2   -458.6234734  0.132992E-05  0.224E-03    0.12       2.9  T
   3   -458.6234744 -0.970888E-06  0.129E-03    0.12       5.0  T
   4   -458.6234746 -0.187847E-06  0.894E-04    0.12       7.2  T
   5   -458.6234741  0.495901E-06  0.141E-03    0.12       4.6  T
   6   -458.6234746 -0.559183E-06  0.730E-04    0.12       8.8  T
     SCC iter.                  ...        0 min,  1.185 sec
     gradient                   ...        0 min,  0.414 sec
 * total energy  :  -449.1960650 Eh     change        0.8035863E-07 Eh
   gradient norm :     2.0120222 Eh/α   predicted     0.0000000E+00 (-100.00%)
   displ. norm   :     0.6406392 α      lambda       -0.1204471E+01
   maximum displ.:     0.2220200 α      in ANC's #572, #706, #718, ...

........................................................................
.............................. CYCLE    2 ..............................
........................................................................
   1   -458.6861945 -0.458686E+03  0.360E-01    0.12       0.0  T
   2   -458.6040085  0.821860E-01  0.579E-01    0.07       1.0  T
   3   -458.0758369  0.528172E+00  0.139E+00    0.05       1.0  T
   4   -458.5885312 -0.512694E+00  0.599E-01    0.27       1.0  T
   5   -458.6729882 -0.844570E-01  0.318E-01    0.16       1.0  T
   6   -456.1904679  0.248252E+01  0.291E+00    0.02       1.0  T
   7   -458.6619944 -0.247153E+01  0.326E-01    0.09       1.0  T
   8   -458.6775638 -0.155694E-01  0.288E-01    0.20       1.0  T
   9   -458.6883052 -0.107414E-01  0.240E-01    0.21       1.0  T
  10   -458.6871036  0.120163E-02  0.244E-01    0.19       1.0  T
  11   -458.6930754 -0.597177E-02  0.214E-01    0.20       1.0  T
  12   -458.6959567 -0.288133E-02  0.189E-01    0.17       1.0  T
  13   -458.6979368 -0.198011E-02  0.180E-01    0.17       1.0  T
  14   -458.6993201 -0.138327E-02  0.161E-01    0.15       1.0  T
  15   -458.6999614 -0.641319E-03  0.153E-01    0.15       1.0  T
  16   -458.7021892 -0.222782E-02  0.137E-01    0.14       1.0  T
  17   -458.7026519 -0.462717E-03  0.128E-01    0.14       1.0  T
  18   -458.7032314 -0.579512E-03  0.124E-01    0.13       1.0  T
  19   -458.7034146 -0.183172E-03  0.123E-01    0.12       1.0  T
  20   -458.7033801  0.344801E-04  0.122E-01    0.12       1.0  T
  21   -458.7037467 -0.366557E-03  0.117E-01    0.12       1.0  T
  22   -458.7041223 -0.375608E-03  0.104E-01    0.12       1.0  T
  23   -458.7047907 -0.668422E-03  0.932E-02    0.12       1.0  T
  24   -458.7056318 -0.841045E-03  0.748E-02    0.13       1.0  T
  25   -458.7066829 -0.105111E-02  0.434E-02    0.13       1.0  T
  26   -458.7066335  0.493719E-04  0.464E-02    0.13       1.0  T
  27   -458.7063202  0.313333E-03  0.575E-02    0.13       1.0  T
  28   -458.7066676 -0.347402E-03  0.455E-02    0.13       1.0  T
  29   -458.7070495 -0.381887E-03  0.293E-02    0.12       1.0  T
  30   -458.7070486  0.885652E-06  0.268E-02    0.12       1.0  T
  31   -458.7070016  0.469919E-04  0.318E-02    0.12       1.0  T
  32   -458.7072200 -0.218413E-03  0.585E-03    0.12       1.1  T
  33   -458.7072120  0.797120E-05  0.846E-03    0.12       1.0  T
  34   -458.7072209 -0.890351E-05  0.555E-03    0.12       1.2  T
  35   -458.7072273 -0.637776E-05  0.168E-03    0.12       3.8  T
  36   -458.7072280 -0.703912E-06  0.335E-04    0.12      19.2  T
  37   -458.7072280 -0.144347E-07  0.229E-04    0.12      28.1  T
     SCC iter.                  ...        0 min,  7.225 sec
     gradient                   ...        0 min,  0.412 sec
 * total energy  :  -450.0271837 Eh     change       -0.8311187E+00 Eh
   gradient norm :     0.8529052 Eh/α   predicted    -0.8494091E+00 (   2.20%)
   displ. norm   :     0.6325284 α      lambda       -0.4672978E+00
   maximum displ.:     0.1818820 α      in ANC's #252, #572, #247, ...

........................................................................
.............................. CYCLE    3 ..............................
........................................................................
   1   -458.7131771 -0.458713E+03  0.346E-01    0.11       0.0  T
   2   -458.5063815  0.206796E+00  0.731E-01    0.20       1.0  T
   3   -458.5581420 -0.517605E-01  0.652E-01    0.08       1.0  T
   4   -458.0923188  0.465823E+00  0.138E+00    0.07       1.0  T
   5   -458.6984465 -0.606128E+00  0.345E-01    0.17       1.0  T
   6   -457.2711860  0.142726E+01  0.225E+00    0.04       1.0  T
   7   -458.6172201 -0.134603E+01  0.540E-01    0.03       1.0  T
   8   -458.6448096 -0.275895E-01  0.328E-01    0.05       1.0  T
   9   -458.6548604 -0.100508E-01  0.426E-01    0.21       1.0  T
  10   -458.7051721 -0.503117E-01  0.270E-01    0.22       1.0  T
  11   -458.7162733 -0.111013E-01  0.242E-01    0.16       1.0  T
  12   -458.7185797 -0.230635E-02  0.214E-01    0.21       1.0  T
  13   -458.7214640 -0.288435E-02  0.199E-01    0.18       1.0  T
  14   -458.7212502  0.213793E-03  0.199E-01    0.18       1.0  T
  15   -458.7236285 -0.237821E-02  0.176E-01    0.16       1.0  T
  16   -458.7254497 -0.182126E-02  0.155E-01    0.15       1.0  T
  17   -458.7259035 -0.453820E-03  0.149E-01    0.15       1.0  T
  18   -458.7272966 -0.139308E-02  0.130E-01    0.14       1.0  T
  19   -458.7283031 -0.100651E-02  0.121E-01    0.15       1.0  T
  20   -458.7292378 -0.934696E-03  0.103E-01    0.14       1.0  T
  21   -458.7299667 -0.728828E-03  0.891E-02    0.14       1.0  T
  22   -458.7307806 -0.813939E-03  0.693E-02    0.14       1.0  T
  23   -458.7311989 -0.418335E-03  0.565E-02    0.13       1.0  T
  24   -458.7317508 -0.551836E-03  0.328E-02    0.13       1.0  T
  25   -458.7319671 -0.216318E-03  0.175E-02    0.13       1.0  T
  26   -458.7319928 -0.256750E-04  0.136E-02    0.12       1.0  T
  27   -458.7320308 -0.380829E-04  0.972E-03    0.12       1.0  T
  28   -458.7320068  0.240044E-04  0.127E-02    0.12       1.0  T
  29   -458.7320312 -0.243408E-04  0.889E-03    0.12       1.0  T
  30   -458.7320406 -0.944907E-05  0.561E-03    0.12       1.1  T
  31   -458.7320459 -0.528304E-05  0.399E-03    0.12       1.6  T
  32   -458.7320473 -0.135143E-05  0.326E-03    0.12       2.0  T
  33   -458.7320493 -0.208113E-05  0.182E-03    0.12       3.5  T
  34   -458.7320502 -0.829368E-06  0.533E-04    0.12      12.1  T
  35   -458.7320502 -0.756874E-07  0.155E-04    0.12      41.5  T
     SCC iter.                  ...        0 min,  6.771 sec
     gradient                   ...        0 min,  0.413 sec
 * total energy  :  -450.3888281 Eh     change       -0.3616444E+00 Eh
   gradient norm :     0.4408067 Eh/α   predicted    -0.3271301E+00 (  -9.54%)
   displ. norm   :     0.7114904 α      lambda       -0.2602171E+00
   maximum displ.:     0.2675476 α      in ANC's #252, #247, #276, ...

........................................................................
.............................. CYCLE    4 ..............................
........................................................................
   1   -458.8169757 -0.458817E+03  0.354E-01    0.11       0.0  T
   2   -458.2813644  0.535611E+00  0.110E+00    0.27       1.0  T
   3   -458.6665795 -0.385215E+00  0.684E-01    0.20       1.0  T
   4   -457.4178667  0.124871E+01  0.220E+00    0.07       1.0  T
   5   -458.8091963 -0.139133E+01  0.322E-01    0.19       1.0  T
   6   -458.7627339  0.464624E-01  0.420E-01    0.12       1.0  T
   7   -458.7890140 -0.262801E-01  0.336E-01    0.11       1.0  T
   8   -458.8122236 -0.232096E-01  0.271E-01    0.17       1.0  T
   9   -458.8171000 -0.487631E-02  0.247E-01    0.14       1.0  T
  10   -458.8226114 -0.551144E-02  0.219E-01    0.16       1.0  T
  11   -458.8247878 -0.217645E-02  0.201E-01    0.17       1.0  T
  12   -458.8292132 -0.442537E-02  0.183E-01    0.15       1.0  T
  13   -458.8277835  0.142967E-02  0.185E-01    0.15       1.0  T
  14   -458.8282660 -0.482474E-03  0.179E-01    0.16       1.0  T
  15   -458.8290938 -0.827803E-03  0.171E-01    0.15       1.0  T
  16   -458.8293832 -0.289413E-03  0.169E-01    0.15       1.0  T
  17   -458.8295688 -0.185613E-03  0.166E-01    0.16       1.0  T
  18   -458.8303129 -0.744063E-03  0.159E-01    0.15       1.0  T
  19   -458.8307333 -0.420420E-03  0.153E-01    0.15       1.0  T
  20   -458.8309412 -0.207838E-03  0.150E-01    0.15       1.0  T
  21   -458.8324896 -0.154847E-02  0.127E-01    0.14       1.0  T
  22   -458.8336557 -0.116604E-02  0.106E-01    0.14       1.0  T
  23   -458.8346812 -0.102552E-02  0.821E-02    0.13       1.0  T
  24   -458.8354691 -0.787903E-03  0.607E-02    0.13       1.0  T
  25   -458.8359966 -0.527526E-03  0.395E-02    0.12       1.0  T
  26   -458.8362486 -0.252014E-03  0.240E-02    0.12       1.0  T
  27   -458.8363203 -0.716463E-04  0.175E-02    0.12       1.0  T
  28   -458.8363905 -0.702329E-04  0.531E-03    0.12       1.2  T
  29   -458.8363940 -0.348904E-05  0.464E-03    0.12       1.4  T
  30   -458.8363885  0.551205E-05  0.692E-03    0.12       1.0  T
  31   -458.8363977 -0.922708E-05  0.243E-03    0.12       2.6  T
  32   -458.8363978 -0.734029E-07  0.185E-03    0.12       3.5  T
  33   -458.8363986 -0.825461E-06  0.330E-04    0.12      19.5  T
  34   -458.8363985  0.785261E-07  0.639E-04    0.12      10.1  T
     SCC iter.                  ...        0 min,  6.578 sec
     gradient                   ...        0 min,  0.413 sec
 * total energy  :  -450.5926090 Eh     change       -0.2037809E+00 Eh
   gradient norm :     0.2171494 Eh/α   predicted    -0.1959722E+00 (  -3.83%)
   displ. norm   :     0.7939391 α      lambda       -0.1566745E+00
   maximum displ.:     0.3233176 α      in ANC's #252, #247, #276, ...

........................................................................
.............................. CYCLE    5 ..............................
........................................................................
   1   -458.9344247 -0.458934E+03  0.346E-01    0.12       0.0  T
   2   -458.3684889  0.565936E+00  0.114E+00    0.20       1.0  T
   3   -458.8121431 -0.443654E+00  0.611E-01    0.19       1.0  T
   4   -457.7648811  0.104726E+01  0.188E+00    0.03       1.0  T
   5   -458.9330468 -0.116817E+01  0.252E-01    0.18       1.0  T
   6   -458.6809965  0.252050E+00  0.541E-01    0.00       1.0  T
   7   -458.9139900 -0.232994E+00  0.273E-01    0.07       1.0  T
   8   -458.9140717 -0.817043E-04  0.309E-01    0.20       1.0  T
   9   -458.9252176 -0.111458E-01  0.259E-01    0.12       1.0  T
  10   -458.9324520 -0.723446E-02  0.214E-01    0.16       1.0  T
  11   -458.9408501 -0.839804E-02  0.173E-01    0.13       1.0  T
  12   -458.9426208 -0.177074E-02  0.160E-01    0.14       1.0  T
  13   -458.9432720 -0.651223E-03  0.158E-01    0.13       1.0  T
  14   -458.9438564 -0.584399E-03  0.151E-01    0.13       1.0  T
  15   -458.9449180 -0.106154E-02  0.143E-01    0.14       1.0  T
  16   -458.9453673 -0.449349E-03  0.137E-01    0.13       1.0  T
  17   -458.9457132 -0.345922E-03  0.134E-01    0.13       1.0  T
  18   -458.9458720 -0.158815E-03  0.129E-01    0.13       1.0  T
  19   -458.9460473 -0.175258E-03  0.123E-01    0.13       1.0  T
  20   -458.9466094 -0.562085E-03  0.115E-01    0.13       1.0  T
  21   -458.9470878 -0.478378E-03  0.107E-01    0.13       1.0  T
  22   -458.9478107 -0.722937E-03  0.936E-02    0.12       1.0  T
  23   -458.9482101 -0.399366E-03  0.821E-02    0.12       1.0  T
  24   -458.9491474 -0.937343E-03  0.576E-02    0.12       1.0  T
  25   -458.9496908 -0.543382E-03  0.278E-02    0.11       1.0  T
  26   -458.9497454 -0.545979E-04  0.257E-02    0.11       1.0  T
  27   -458.9497841 -0.386978E-04  0.214E-02    0.11       1.0  T
  28   -458.9498144 -0.303355E-04  0.170E-02    0.11       1.0  T
  29   -458.9498909 -0.764344E-04  0.235E-03    0.11       2.7  T
  30   -458.9498916 -0.793193E-06  0.115E-03    0.11       5.6  T
  31   -458.9498918 -0.138326E-06  0.184E-03    0.11       3.5  T
  32   -458.9498915  0.272743E-06  0.106E-03    0.11       6.0  T
  33   -458.9498923 -0.760349E-06  0.517E-04    0.11      12.4  T
  34   -458.9498924 -0.118763E-06  0.249E-04    0.11      25.9  T
     SCC iter.                  ...        0 min,  6.645 sec
     gradient                   ...        0 min,  0.413 sec
 * total energy  :  -450.7253774 Eh     change       -0.1327684E+00 Eh
   gradient norm :     0.1458578 Eh/α   predicted    -0.1277165E+00 (  -3.81%)
   displ. norm   :     0.8361840 α      lambda       -0.1161552E+00
   maximum displ.:     0.3290347 α      in ANC's #252, #247, #192, ...

........................................................................
.............................. CYCLE    6 ..............................
........................................................................
   1   -459.0348450 -0.459035E+03  0.331E-01    0.12       0.0  T
   2   -458.6811715  0.353674E+00  0.901E-01    0.08       1.0  T
   3   -458.9387235 -0.257552E+00  0.522E-01    0.11       1.0  T
   4   -458.6926050  0.246118E+00  0.933E-01    0.00       1.0  T
   5   -459.0192243 -0.326619E+00  0.255E-01    0.16       1.0  T
   6   -458.9614900  0.577343E-01  0.326E-01    0.03       1.0  T
   7   -458.9977061 -0.362160E-01  0.296E-01    0.08       1.0  T
   8   -459.0107170 -0.130109E-01  0.272E-01    0.19       1.0  T
   9   -459.0033812  0.733571E-02  0.314E-01    0.20       1.0  T
  10   -459.0355838 -0.322025E-01  0.140E-01    0.13       1.0  T
  11   -459.0406646 -0.508081E-02  0.108E-01    0.13       1.0  T
  12   -459.0401503  0.514266E-03  0.106E-01    0.12       1.0  T
  13   -459.0412754 -0.112505E-02  0.101E-01    0.13       1.0  T
  14   -459.0427154 -0.143999E-02  0.859E-02    0.12       1.0  T
  15   -459.0433083 -0.592952E-03  0.781E-02    0.12       1.0  T
  16   -459.0427653  0.543031E-03  0.790E-02    0.11       1.0  T
  17   -459.0434692 -0.703936E-03  0.725E-02    0.12       1.0  T
  18   -459.0435985 -0.129287E-03  0.640E-02    0.11       1.0  T
  19   -459.0435973  0.125197E-05  0.587E-02    0.11       1.0  T
  20   -459.0442498 -0.652533E-03  0.492E-02    0.11       1.0  T
  21   -459.0444192 -0.169428E-03  0.371E-02    0.11       1.0  T
  22   -459.0448908 -0.471628E-03  0.167E-02    0.11       1.0  T
  23   -459.0448929 -0.211103E-05  0.127E-02    0.11       1.0  T
  24   -459.0449266 -0.336304E-04  0.442E-03    0.11       1.5  T
  25   -459.0449248  0.177194E-05  0.403E-03    0.11       1.6  T
  26   -459.0449282 -0.341823E-05  0.216E-03    0.11       3.0  T
  27   -459.0449280  0.219154E-06  0.194E-03    0.11       3.3  T
  28   -459.0449293 -0.127812E-05  0.790E-04    0.11       8.1  T
  29   -459.0449293 -0.291590E-07  0.497E-04    0.11      12.9  T
  30   -459.0449294 -0.107250E-06  0.258E-04    0.11      25.0  T
     SCC iter.                  ...        0 min,  5.859 sec
     gradient                   ...        0 min,  0.413 sec
 * total energy  :  -450.8264950 Eh     change       -0.1011176E+00 Eh
   gradient norm :     0.1153761 Eh/α   predicted    -0.9868574E-01 (  -2.41%)
   displ. norm   :     0.8463746 α      lambda       -0.8909709E-01
   maximum displ.:     0.3009137 α      in ANC's #252, #192, #138, ...

........................................................................
.............................. CYCLE    7 ..............................
........................................................................
   1   -459.1178112 -0.459118E+03  0.311E-01    0.12       0.0  T
   2   -458.9314465  0.186365E+00  0.518E-01    0.01       1.0  T
   3   -458.3491321  0.582314E+00  0.830E-01    0.09       1.0  T
   4   -458.9420572 -0.592925E+00  0.702E-01    0.39       1.0  T
   5   -459.0521524 -0.110095E+00  0.406E-01    0.30       1.0  T
   6   -459.0287362  0.234162E-01  0.486E-01    0.20       1.0  T
   7   -458.8839718  0.144764E+00  0.453E-01    0.02       1.0  T
   8   -459.0900395 -0.206068E+00  0.225E-01    0.15       1.0  T
   9   -459.1096384 -0.195988E-01  0.129E-01    0.11       1.0  T
  10   -459.1146548 -0.501647E-02  0.103E-01    0.12       1.0  T
  11   -459.1162107 -0.155584E-02  0.103E-01    0.15       1.0  T
  12   -459.1152522  0.958460E-03  0.108E-01    0.16       1.0  T
  13   -459.1163063 -0.105406E-02  0.973E-02    0.15       1.0  T
  14   -459.1209491 -0.464282E-02  0.638E-02    0.10       1.0  T
  15   -459.1217468 -0.797701E-03  0.377E-02    0.11       1.0  T
  16   -459.1166030  0.514376E-02  0.854E-02    0.09       1.0  T
  17   -459.1197659 -0.316288E-02  0.641E-02    0.11       1.0  T
  18   -459.1220780 -0.231209E-02  0.317E-02    0.12       1.0  T
  19   -459.1216653  0.412709E-03  0.343E-02    0.12       1.0  T
  20   -459.1224633 -0.798026E-03  0.172E-02    0.11       1.0  T
  21   -459.1225346 -0.712874E-04  0.132E-02    0.12       1.0  T
  22   -459.1225918 -0.571608E-04  0.913E-03    0.11       1.0  T
  23   -459.1226639 -0.721309E-04  0.239E-03    0.11       2.7  T
  24   -459.1226585  0.534877E-05  0.367E-03    0.11       1.8  T
  25   -459.1226695 -0.109889E-04  0.951E-04    0.11       6.8  T
  26   -459.1226700 -0.419693E-06  0.570E-04    0.11      11.3  T
  27   -459.1226702 -0.218569E-06  0.136E-04    0.11      47.2  T
     SCC iter.                  ...        0 min,  5.278 sec
     gradient                   ...        0 min,  0.414 sec
 * total energy  :  -450.9043165 Eh     change       -0.7782145E-01 Eh
   gradient norm :     0.0898774 Eh/α   predicted    -0.7646092E-01 (  -1.75%)
   displ. norm   :     0.8461180 α      lambda       -0.6760372E-01
   maximum displ.:     0.2738949 α      in ANC's #138, #252, #192, ...

........................................................................
.............................. CYCLE    8 ..............................
........................................................................
   1   -459.1814863 -0.459181E+03  0.298E-01    0.12       0.0  T
   2   -459.1081636  0.733227E-01  0.319E-01    0.03       1.0  T
   3   -457.8391235  0.126904E+01  0.124E+00    0.06       1.0  T
   4   -459.0856938 -0.124657E+01  0.451E-01    0.30       1.0  T
   5   -459.0691930  0.165008E-01  0.427E-01    0.06       1.0  T
   6   -459.1458965 -0.767035E-01  0.288E-01    0.08       1.0  T
   7   -459.0975457  0.483508E-01  0.418E-01    0.13       1.0  T
   8   -459.1348502 -0.373045E-01  0.339E-01    0.28       1.0  T
   9   -459.1677138 -0.328636E-01  0.183E-01    0.19       1.0  T
  10   -459.1801979 -0.124841E-01  0.900E-02    0.16       1.0  T
  11   -459.1825151 -0.231715E-02  0.594E-02    0.12       1.0  T
  12   -459.1779598  0.455525E-02  0.848E-02    0.11       1.0  T
  13   -459.1820903 -0.413053E-02  0.491E-02    0.13       1.0  T
  14   -459.1838467 -0.175639E-02  0.275E-02    0.12       1.0  T
  15   -459.1842764 -0.429621E-03  0.129E-02    0.12       1.0  T
  16   -459.1843248 -0.484522E-04  0.668E-03    0.13       1.0  T
  17   -459.1843594 -0.346426E-04  0.262E-03    0.12       2.4  T
  18   -459.1843381  0.213175E-04  0.503E-03    0.12       1.3  T
  19   -459.1843584 -0.202255E-04  0.184E-03    0.12       3.5  T
  20   -459.1843602 -0.188164E-05  0.136E-03    0.12       4.7  T
  21   -459.1843614 -0.112896E-05  0.759E-04    0.12       8.5  T
  22   -459.1843615 -0.133358E-06  0.572E-04    0.12      11.2  T
  23   -459.1843616 -0.139244E-06  0.330E-04    0.12      19.5  T
     SCC iter.                  ...        0 min,  4.486 sec
     gradient                   ...        0 min,  0.416 sec
 * total energy  :  -450.9631485 Eh     change       -0.5883202E-01 Eh
   gradient norm :     0.0666260 Eh/α   predicted    -0.5800116E-01 (  -1.41%)
   displ. norm   :     0.8423220 α      lambda       -0.5021973E-01
   maximum displ.:     0.2801023 α      in ANC's #138, #134, #128, ...

........................................................................
.............................. CYCLE    9 ..............................
........................................................................
   1   -459.2240519 -0.459224E+03  0.287E-01    0.13       0.0  T
   2   -459.1367310  0.873209E-01  0.411E-01    0.05       1.0  T
   3   -458.5022354  0.634496E+00  0.856E-01    0.10       1.0  T
   4   -458.9907182 -0.488483E+00  0.723E-01    0.24       1.0  T
   5   -459.1197877 -0.129070E+00  0.485E-01    0.46       1.0  T
   6   -459.1920148 -0.722270E-01  0.296E-01    0.25       1.0  T
   7   -458.4977904  0.694224E+00  0.816E-01    0.14       1.0  T
   8   -459.1997067 -0.701916E+00  0.247E-01    0.28       1.0  T
   9   -459.2094839 -0.977716E-02  0.191E-01    0.23       1.0  T
  10   -459.2183170 -0.883316E-02  0.126E-01    0.21       1.0  T
  11   -459.2199902 -0.167321E-02  0.112E-01    0.20       1.0  T
  12   -459.2212792 -0.128895E-02  0.102E-01    0.18       1.0  T
  13   -459.2227003 -0.142107E-02  0.833E-02    0.15       1.0  T
  14   -459.2239127 -0.121247E-02  0.632E-02    0.15       1.0  T
  15   -459.2254903 -0.157762E-02  0.461E-02    0.15       1.0  T
  16   -459.2266880 -0.119763E-02  0.211E-02    0.14       1.0  T
  17   -459.2266958 -0.786833E-05  0.201E-02    0.14       1.0  T
  18   -459.2267767 -0.808452E-04  0.146E-02    0.14       1.0  T
  19   -459.2268401 -0.633688E-04  0.107E-02    0.13       1.0  T
  20   -459.2268513 -0.112657E-04  0.654E-03    0.13       1.0  T
  21   -459.2268813 -0.299934E-04  0.445E-03    0.13       1.4  T
  22   -459.2268870 -0.570180E-05  0.287E-03    0.13       2.2  T
  23   -459.2268960 -0.903029E-05  0.105E-03    0.13       6.1  T
  24   -459.2268963 -0.216004E-06  0.884E-04    0.13       7.3  T
  25   -459.2268957  0.518317E-06  0.110E-03    0.13       5.8  T
  26   -459.2268969 -0.114626E-05  0.352E-04    0.13      18.3  T
  27   -459.2268969  0.718705E-08  0.328E-04    0.13      19.6  T
     SCC iter.                  ...        0 min,  5.204 sec
     gradient                   ...        0 min,  0.414 sec
 * total energy  :  -451.0066094 Eh     change       -0.4346093E-01 Eh
   gradient norm :     0.0489612 Eh/α   predicted    -0.4292548E-01 (  -1.23%)
   displ. norm   :     0.8390804 α      lambda       -0.3669975E-01
   maximum displ.:     0.2570647 α      in ANC's #138, #128, #134, ...

........................................................................
.............................. CYCLE   10 ..............................
........................................................................
   1   -459.2484244 -0.459248E+03  0.271E-01    0.15       0.0  T
   2   -459.0838769  0.164548E+00  0.494E-01    0.02       1.0  T
   3   -458.8821242  0.201753E+00  0.615E-01    0.04       1.0  T
   4   -459.1799456 -0.297821E+00  0.390E-01    0.36       1.0  T
   5   -459.1339000  0.460456E-01  0.523E-01    0.32       1.0  T
   6   -459.2221981 -0.882981E-01  0.286E-01    0.24       1.0  T
   7   -459.1931872  0.290110E-01  0.322E-01    0.09       1.0  T
   8   -459.2246929 -0.315058E-01  0.251E-01    0.27       1.0  T
   9   -459.2430066 -0.183137E-01  0.132E-01    0.23       1.0  T
  10   -459.2478529 -0.484622E-02  0.809E-02    0.20       1.0  T
  11   -459.2485981 -0.745244E-03  0.706E-02    0.20       1.0  T
  12   -459.2495628 -0.964675E-03  0.575E-02    0.18       1.0  T
  13   -459.2510659 -0.150307E-02  0.285E-02    0.15       1.0  T
  14   -459.2516368 -0.570950E-03  0.141E-02    0.15       1.0  T
  15   -459.2516230  0.138437E-04  0.147E-02    0.15       1.0  T
  16   -459.2516021  0.208950E-04  0.119E-02    0.14       1.0  T
  17   -459.2517160 -0.113922E-03  0.374E-03    0.14       1.7  T
  18   -459.2517232 -0.720607E-05  0.307E-03    0.14       2.1  T
  19   -459.2517271 -0.393034E-05  0.131E-03    0.14       4.9  T
  20   -459.2517276 -0.462674E-06  0.832E-04    0.14       7.7  T
  21   -459.2517276  0.488444E-08  0.610E-04    0.14      10.5  T
     SCC iter.                  ...        0 min,  4.058 sec
     gradient                   ...        0 min,  0.413 sec
 * total energy  :  -451.0383511 Eh     change       -0.3174175E-01 Eh
   gradient norm :     0.0372825 Eh/α   predicted    -0.3126922E-01 (  -1.49%)
   displ. norm   :     0.8514891 α      lambda       -0.2738407E-01
   maximum displ.:     0.2502207 α      in ANC's #46, #34, #35, ...

........................................................................
.............................. CYCLE   11 ..............................
........................................................................
   1   -459.2615204 -0.459262E+03  0.245E-01    0.19       0.0  T
   2   -459.0225829  0.238938E+00  0.532E-01    0.01       1.0  T
   3   -459.2451271 -0.222544E+00  0.239E-01    0.15       1.0  T
   4   -459.1987621  0.463650E-01  0.413E-01    0.22       1.0  T
   5   -459.2338219 -0.350598E-01  0.288E-01    0.32       1.0  T
   6   -459.1540488  0.797731E-01  0.338E-01    0.03       1.0  T
   7   -459.2515186 -0.974698E-01  0.182E-01    0.30       1.0  T
   8   -459.2562437 -0.472515E-02  0.138E-01    0.22       1.0  T
   9   -459.2590458 -0.280203E-02  0.114E-01    0.23       1.0  T
  10   -459.2628993 -0.385355E-02  0.618E-02    0.20       1.0  T
  11   -459.2638048 -0.905512E-03  0.455E-02    0.18       1.0  T
  12   -459.2642974 -0.492562E-03  0.333E-02    0.16       1.0  T
  13   -459.2649283 -0.630895E-03  0.210E-02    0.16       1.0  T
  14   -459.2652862 -0.357907E-03  0.975E-03    0.16       1.0  T
  15   -459.2652818  0.441525E-05  0.907E-03    0.15       1.0  T
  16   -459.2653112 -0.294065E-04  0.720E-03    0.16       1.0  T
  17   -459.2652885  0.227052E-04  0.742E-03    0.15       1.0  T
  18   -459.2653331 -0.446716E-04  0.263E-03    0.16       2.4  T
  19   -459.2653331  0.597217E-07  0.233E-03    0.16       2.8  T
  20   -459.2653361 -0.305752E-05  0.140E-03    0.16       4.6  T
  21   -459.2653377 -0.155378E-05  0.441E-04    0.16      14.6  T
  22   -459.2653378 -0.108852E-06  0.242E-04    0.16      26.6  T
  23   -459.2653378 -0.122059E-07  0.170E-04    0.16      37.8  T
     SCC iter.                  ...        0 min,  4.451 sec
     gradient                   ...        0 min,  0.415 sec
 * total energy  :  -451.0626603 Eh     change       -0.2430917E-01 Eh
   gradient norm :     0.0307977 Eh/α   predicted    -0.2361925E-01 (  -2.84%)
   displ. norm   :     0.8973588 α      lambda       -0.2309673E-01
   maximum displ.:     0.2980685 α      in ANC's #34, #35, #46, ...

........................................................................
.............................. CYCLE   12 ..............................
........................................................................
   1   -459.2684400 -0.459268E+03  0.222E-01    0.25       0.0  T
   2   -459.1432507  0.125189E+00  0.425E-01    0.04       1.0  T
   3   -459.2584640 -0.115213E+00  0.194E-01    0.26       1.0  T
   4   -459.2494892  0.897486E-02  0.249E-01    0.34       1.0  T
   5   -459.2442715  0.521767E-02  0.275E-01    0.39       1.0  T
   6   -459.2662715 -0.220000E-01  0.114E-01    0.26       1.0  T
   7   -459.2686285 -0.235696E-02  0.982E-02    0.24       1.0  T
   8   -459.2701129 -0.148441E-02  0.704E-02    0.29       1.0  T
   9   -459.2719710 -0.185804E-02  0.339E-02    0.25       1.0  T
  10   -459.2720888 -0.117830E-03  0.248E-02    0.24       1.0  T
  11   -459.2724077 -0.318959E-03  0.100E-02    0.20       1.0  T
  12   -459.2723333  0.744007E-04  0.125E-02    0.17       1.0  T
  13   -459.2724250 -0.916640E-04  0.617E-03    0.18       1.0  T
  14   -459.2724021  0.229096E-04  0.735E-03    0.18       1.0  T
  15   -459.2724505 -0.484160E-04  0.139E-03    0.19       4.6  T
  16   -459.2724491  0.146159E-05  0.165E-03    0.19       3.9  T
  17   -459.2724512 -0.210713E-05  0.367E-04    0.19      17.5  T
  18   -459.2724512 -0.445846E-08  0.353E-04    0.19      18.2  T
  19   -459.2724512 -0.388793E-07  0.188E-04    0.19      34.2  T
     SCC iter.                  ...        0 min,  3.705 sec
     gradient                   ...        0 min,  0.413 sec
 * total energy  :  -451.0846923 Eh     change       -0.2203198E-01 Eh
   gradient norm :     0.0307524 Eh/α   predicted    -0.2084772E-01 (  -5.38%)
   displ. norm   :     0.9635818 α      lambda       -0.2397442E-01
   maximum displ.:     0.3478559 α      in ANC's #35, #34, #22, ...

........................................................................
.............................. CYCLE   13 ..............................
........................................................................
   1   -459.2716454 -0.459272E+03  0.231E-01    0.35       0.0  T
   2   -459.2360019  0.356435E-01  0.319E-01    0.14       1.0  T
   3   -459.2562631 -0.202612E-01  0.251E-01    0.38       1.0  T
   4   -459.2532195  0.304357E-02  0.241E-01    0.48       1.0  T
   5   -459.2733770 -0.201575E-01  0.748E-02    0.35       1.0  T
   6   -459.2741956 -0.818591E-03  0.620E-02    0.26       1.0  T
   7   -459.2753390 -0.114342E-02  0.234E-02    0.28       1.0  T
   8   -459.2751429  0.196109E-03  0.255E-02    0.22       1.0  T
   9   -459.2754117 -0.268730E-03  0.125E-02    0.25       1.0  T
  10   -459.2754291 -0.174249E-04  0.872E-03    0.25       1.0  T
  11   -459.2754477 -0.186327E-04  0.383E-03    0.26       1.7  T
  12   -459.2754526 -0.491640E-05  0.160E-03    0.26       4.0  T
  13   -459.2754531 -0.433770E-06  0.102E-03    0.26       6.3  T
  14   -459.2754533 -0.238109E-06  0.428E-04    0.26      15.0  T
  15   -459.2754533 -0.196647E-07  0.234E-04    0.26      27.5  T
     SCC iter.                  ...        0 min,  2.920 sec
     gradient                   ...        0 min,  0.415 sec
 * total energy  :  -451.1094534 Eh     change       -0.2476111E-01 Eh
   gradient norm :     0.0373361 Eh/α   predicted    -0.2311723E-01 (  -6.64%)
   displ. norm   :     0.9442227 α      lambda       -0.2626554E-01
   maximum displ.:     0.3539917 α      in ANC's #35, #34, #22, ...

........................................................................
.............................. CYCLE   14 ..............................
........................................................................
   1   -459.2619153 -0.459262E+03  0.224E-01    0.49       0.0  T
   2   -459.2489614  0.129539E-01  0.232E-01    0.37       1.0  T
   3   -459.2485331  0.428316E-03  0.236E-01    0.47       1.0  T
   4   -459.2552182 -0.668508E-02  0.161E-01    0.53       1.0  T
   5   -459.2637805 -0.856232E-02  0.518E-02    0.46       1.0  T
   6   -459.2640700 -0.289447E-03  0.330E-02    0.42       1.0  T
   7   -459.2643987 -0.328711E-03  0.168E-02    0.45       1.0  T
   8   -459.2644183 -0.196498E-04  0.834E-03    0.44       1.0  T
   9   -459.2644277 -0.940572E-05  0.457E-03    0.45       1.4  T
  10   -459.2644350 -0.729305E-05  0.186E-03    0.45       3.5  T
  11   -459.2644355 -0.517827E-06  0.112E-03    0.45       5.8  T
  12   -459.2644357 -0.126897E-06  0.650E-04    0.45       9.9  T
  13   -459.2644357 -0.726045E-07  0.337E-04    0.45      19.1  T
     SCC iter.                  ...        0 min,  2.540 sec
     gradient                   ...        0 min,  0.415 sec
 * total energy  :  -451.1378458 Eh     change       -0.2839239E-01 Eh
   gradient norm :     0.0517748 Eh/α   predicted    -0.2484139E-01 ( -12.51%)
   displ. norm   :     0.9079756 α      lambda       -0.3144629E-01
   maximum displ.:     0.3494386 α      in ANC's #22, #35, #34, ...

........................................................................
.............................. CYCLE   15 ..............................
........................................................................
   1   -459.2515417 -0.459252E+03  0.217E-01    0.78       0.0  T
   2   -459.2460411  0.550057E-02  0.183E-01    0.70       1.0  T
   3   -459.2424747  0.356643E-02  0.204E-01    0.80       1.0  T
   4   -459.2506197 -0.814508E-02  0.948E-02    0.81       1.0  T
   5   -459.2529251 -0.230541E-02  0.466E-02    0.77       1.0  T
   6   -459.2533963 -0.471152E-03  0.181E-02    0.77       1.0  T
   7   -459.2533811  0.151578E-04  0.149E-02    0.78       1.0  T
   8   -459.2534190 -0.378738E-04  0.722E-03    0.77       1.0  T
   9   -459.2534323 -0.132516E-04  0.273E-03    0.77       2.4  T
  10   -459.2534340 -0.177902E-05  0.140E-03    0.77       4.6  T
  11   -459.2534343 -0.267929E-06  0.749E-04    0.77       8.6  T
  12   -459.2534344 -0.432952E-07  0.550E-04    0.77      11.7  T
     SCC iter.                  ...        0 min,  2.326 sec
     gradient                   ...        0 min,  0.415 sec
 * total energy  :  -451.1724792 Eh     change       -0.3463337E-01 Eh
   gradient norm :     0.0676078 Eh/α   predicted    -0.2868563E-01 ( -17.17%)
   displ. norm   :     0.8784543 α      lambda       -0.3871746E-01
   maximum displ.:     0.3520746 α      in ANC's #22, #35, #34, ...

........................................................................
.............................. CYCLE   16 ..............................
........................................................................
   1   -459.2431220 -0.459243E+03  0.200E-01    1.14       0.0  T
   2   -459.2407419  0.238005E-02  0.156E-01    1.14       1.0  T
   3   -459.2382003  0.254160E-02  0.165E-01    1.14       1.0  T
   4   -459.2439451 -0.574473E-02  0.520E-02    1.14       1.0  T
   5   -459.2441104 -0.165326E-03  0.408E-02    1.14       1.0  T
   6   -459.2445020 -0.391550E-03  0.168E-02    1.14       1.0  T
   7   -459.2445000  0.198422E-05  0.105E-02    1.14       1.0  T
   8   -459.2445192 -0.192403E-04  0.593E-03    1.14       1.1  T
   9   -459.2445302 -0.110004E-04  0.204E-03    1.14       3.2  T
  10   -459.2445309 -0.663640E-06  0.118E-03    1.14       5.4  T
  11   -459.2445310 -0.169772E-06  0.751E-04    1.14       8.6  T
  12   -459.2445311 -0.696992E-07  0.411E-04    1.14      15.6  T
     SCC iter.                  ...        0 min,  2.348 sec
     gradient                   ...        0 min,  0.414 sec
 * total energy  :  -451.2141840 Eh     change       -0.4170487E-01 Eh
   gradient norm :     0.0804809 Eh/α   predicted    -0.3429753E-01 ( -17.76%)
   displ. norm   :     0.8626356 α      lambda       -0.4556468E-01
   maximum displ.:     0.3583143 α      in ANC's #22, #35, #34, ...

........................................................................
.............................. CYCLE   17 ..............................
........................................................................
   1   -459.2392064 -0.459239E+03  0.177E-01    1.15       0.0  T
   2   -459.2379669  0.123950E-02  0.141E-01    1.15       1.0  T
   3   -459.2367854  0.118150E-02  0.128E-01    1.15       1.0  T
   4   -459.2400746 -0.328923E-02  0.350E-02    1.15       1.0  T
   5   -459.2401389 -0.642279E-04  0.237E-02    1.15       1.0  T
   6   -459.2402000 -0.611779E-04  0.160E-02    1.15       1.0  T
   7   -459.2402239 -0.238612E-04  0.788E-03    1.15       1.0  T
   8   -459.2402318 -0.792146E-05  0.467E-03    1.15       1.4  T
   9   -459.2402390 -0.723069E-05  0.166E-03    1.15       3.9  T
  10   -459.2402395 -0.414482E-06  0.990E-04    1.15       6.5  T
  11   -459.2402395 -0.804055E-07  0.625E-04    1.15      10.3  T
     SCC iter.                  ...        0 min,  2.138 sec
     gradient                   ...        0 min,  0.414 sec
 * total energy  :  -451.2601418 Eh     change       -0.4595777E-01 Eh
   gradient norm :     0.0807541 Eh/α   predicted    -0.3973579E-01 ( -13.54%)
   displ. norm   :     0.9552204 α      lambda       -0.6143729E-01
   maximum displ.:     0.3772085 α      in ANC's #22, #35, #34, ...

........................................................................
.............................. CYCLE   18 ..............................
........................................................................
   1   -459.2535789 -0.459254E+03  0.253E-01    1.13       0.0  T
   2   -459.2513223  0.225657E-02  0.208E-01    1.13       1.0  T
   3   -459.2500193  0.130308E-02  0.162E-01    1.13       1.0  T
   4   -459.2550606 -0.504131E-02  0.513E-02    1.13       1.0  T
   5   -459.2555815 -0.520948E-03  0.262E-02    1.13       1.0  T
   6   -459.2556591 -0.775277E-04  0.187E-02    1.13       1.0  T
   7   -459.2557090 -0.499638E-04  0.110E-02    1.13       1.0  T
   8   -459.2557192 -0.101800E-04  0.571E-03    1.13       1.1  T
   9   -459.2557273 -0.811759E-05  0.249E-03    1.13       2.6  T
  10   -459.2557283 -0.987912E-06  0.144E-03    1.13       4.5  T
  11   -459.2557284 -0.821454E-07  0.906E-04    1.13       7.1  T
  12   -459.2557285 -0.895440E-07  0.537E-04    1.13      12.0  T
     SCC iter.                  ...        0 min,  2.320 sec
     gradient                   ...        0 min,  0.417 sec
 * total energy  :  -451.3042401 Eh     change       -0.4409826E-01 Eh
   gradient norm :     0.1142409 Eh/α   predicted    -0.5874778E-01 (  33.22%)
   displ. norm   :     0.7049895 α      lambda       -0.3652236E-01
   maximum displ.:     0.2998649 α      in ANC's #22, #35, #34, ...

........................................................................
.............................. CYCLE   19 ..............................
........................................................................
   1   -459.2627768 -0.459263E+03  0.114E-01    1.13       0.0  T
   2   -459.2623680  0.408829E-03  0.953E-02    1.13       1.0  T
   3   -459.2617303  0.637685E-03  0.751E-02    1.13       1.0  T
   4   -459.2629881 -0.125780E-02  0.223E-02    1.13       1.0  T
   5   -459.2630683 -0.801365E-04  0.135E-02    1.13       1.0  T
   6   -459.2630659  0.232737E-05  0.974E-03    1.13       1.0  T
   7   -459.2630809 -0.149924E-04  0.503E-03    1.13       1.3  T
   8   -459.2630866 -0.570077E-05  0.185E-03    1.13       3.5  T
   9   -459.2630872 -0.594445E-06  0.992E-04    1.13       6.5  T
  10   -459.2630873 -0.122517E-06  0.615E-04    1.13      10.4  T
     SCC iter.                  ...        0 min,  1.961 sec
     gradient                   ...        0 min,  0.413 sec
 * total energy  :  -451.3372169 Eh     change       -0.3297688E-01 Eh
   gradient norm :     0.0928463 Eh/α   predicted    -0.2733717E-01 ( -17.10%)
   displ. norm   :     0.7797559 α      lambda       -0.4966685E-01
   maximum displ.:     0.3173536 α      in ANC's #22, #35, #34, ...

........................................................................
.............................. CYCLE   20 ..............................
........................................................................
   1   -459.3425581 -0.459343E+03  0.183E-01    1.12       0.0  T
   2   -459.3416857  0.872405E-03  0.147E-01    1.12       1.0  T
   3   -459.3408161  0.869576E-03  0.108E-01    1.12       1.0  T
   4   -459.3430179 -0.220183E-02  0.382E-02    1.12       1.0  T
   5   -459.3434353 -0.417347E-03  0.169E-02    1.12       1.0  T
   6   -459.3434707 -0.354031E-04  0.113E-02    1.12       1.0  T
   7   -459.3434761 -0.546050E-05  0.589E-03    1.12       1.1  T
   8   -459.3434815 -0.540283E-05  0.313E-03    1.12       2.1  T
   9   -459.3434840 -0.246425E-05  0.161E-03    1.12       4.0  T
  10   -459.3434840 -0.200737E-07  0.120E-03    1.12       5.4  T
  11   -459.3434842 -0.148582E-06  0.744E-04    1.12       8.6  T
  12   -459.3434843 -0.864625E-07  0.386E-04    1.12      16.7  T
     SCC iter.                  ...        0 min,  2.342 sec
     gradient                   ...        0 min,  0.415 sec
 * total energy  :  -451.3658835 Eh     change       -0.2866653E-01 Eh
   gradient norm :     0.0786907 Eh/α   predicted    -0.3993267E-01 (  39.30%)
   displ. norm   :     0.8373515 α      lambda       -0.3183709E-01
   maximum displ.:     0.4406403 α      in ANC's #22, #34, #35, ...
 * RMSD in coord.:     0.7874535 α      energy gain  -0.2169818E+01 Eh

generating ANC from model Hessian ...
Using Lindh-Hessian (1995)
 Shifting diagonal of input Hessian by    1.0023578456111511E-002
 Lowest  eigenvalues of input Hessian
    0.010000    0.010011    0.010014    0.010016    0.010019    0.010020
    0.010021    0.010022    0.010023    0.010023    0.010024    0.000000
    0.000000    0.000000    0.000000    0.000000    0.000000    0.010024
 Highest eigenvalues
    2.712416    2.715664    2.752971    3.045051    3.049067    3.092576


........................................................................
.............................. CYCLE   21 ..............................
........................................................................
   1   -459.3718463 -0.459372E+03  0.114E-01    1.12       0.0  T
   2   -459.3716445  0.201783E-03  0.872E-02    1.12       1.0  T
   3   -459.3702283  0.141623E-02  0.754E-02    1.12       1.0  T
   4   -459.3719656 -0.173733E-02  0.230E-02    1.12       1.0  T
   5   -459.3720761 -0.110433E-03  0.117E-02    1.12       1.0  T
   6   -459.3720737  0.237377E-05  0.891E-03    1.12       1.0  T
   7   -459.3720842 -0.104828E-04  0.406E-03    1.12       1.6  T
   8   -459.3720882 -0.402353E-05  0.163E-03    1.12       3.9  T
   9   -459.3720887 -0.539502E-06  0.914E-04    1.12       7.0  T
  10   -459.3720889 -0.107982E-06  0.552E-04    1.12      11.6  T
     SCC iter.                  ...        0 min,  1.954 sec
     gradient                   ...        0 min,  0.416 sec
 * total energy  :  -451.3934714 Eh     change       -0.2758797E-01 Eh
   gradient norm :     0.0591347 Eh/α   predicted     0.0000000E+00 (-100.00%)
   displ. norm   :     0.7591369 α      lambda       -0.2451971E-01
   maximum displ.:     0.5811713 α      in ANC's #50, #54, #65, ...

........................................................................
.............................. CYCLE   22 ..............................
........................................................................
   1   -459.4237136 -0.459424E+03  0.806E-02    1.11       0.0  T
   2   -459.4236809  0.327479E-04  0.542E-02    1.11       1.0  T
   3   -459.4227139  0.966996E-03  0.518E-02    1.11       1.0  T
   4   -459.4237439 -0.103009E-02  0.111E-02    1.11       1.0  T
   5   -459.4237623 -0.183254E-04  0.681E-03    1.11       1.0  T
   6   -459.4237611  0.116457E-05  0.510E-03    1.11       1.3  T
   7   -459.4237654 -0.424710E-05  0.181E-03    1.11       3.6  T
   8   -459.4237662 -0.800005E-06  0.845E-04    1.11       7.6  T
   9   -459.4237663 -0.106693E-06  0.524E-04    1.11      12.3  T
     SCC iter.                  ...        0 min,  1.765 sec
     gradient                   ...        0 min,  0.414 sec
 * total energy  :  -451.4165310 Eh     change       -0.2305951E-01 Eh
   gradient norm :     0.0418848 Eh/α   predicted    -0.1932554E-01 ( -16.19%)
   displ. norm   :     0.9052039 α      lambda       -0.2601561E-01
   maximum displ.:     0.6916348 α      in ANC's #50, #54, #65, ...

........................................................................
.............................. CYCLE   23 ..............................
........................................................................
   1   -459.4717507 -0.459472E+03  0.970E-02    1.10       0.0  T
   2   -459.4717065  0.441433E-04  0.652E-02    1.10       1.0  T
   3   -459.4703404  0.136608E-02  0.621E-02    1.10       1.0  T
   4   -459.4717911 -0.145069E-02  0.139E-02    1.10       1.0  T
   5   -459.4718237 -0.325899E-04  0.818E-03    1.10       1.0  T
   6   -459.4718227  0.107191E-05  0.608E-03    1.10       1.1  T
   7   -459.4718279 -0.523755E-05  0.245E-03    1.10       2.6  T
   8   -459.4718295 -0.163853E-05  0.101E-03    1.10       6.4  T
   9   -459.4718297 -0.145812E-06  0.623E-04    1.10      10.3  T
  10   -459.4718297 -0.255442E-07  0.403E-04    1.10      15.9  T
     SCC iter.                  ...        0 min,  1.958 sec
     gradient                   ...        0 min,  0.415 sec
 * total energy  :  -451.4404549 Eh     change       -0.2392393E-01 Eh
   gradient norm :     0.0281310 Eh/α   predicted    -0.2366633E-01 (  -1.08%)
   displ. norm   :     0.9400962 α      lambda       -0.2394913E-01
   maximum displ.:     0.7224013 α      in ANC's #50, #54, #64, ...

........................................................................
.............................. CYCLE   24 ..............................
........................................................................
   1   -459.5093197 -0.459509E+03  0.126E-01    1.09       0.0  T
   2   -459.5092921  0.275996E-04  0.801E-02    1.09       1.0  T
   3   -459.5075847  0.170743E-02  0.647E-02    1.09       1.0  T
   4   -459.5093487 -0.176397E-02  0.138E-02    1.09       1.0  T
   5   -459.5093806 -0.318763E-04  0.832E-03    1.09       1.0  T
   6   -459.5093777  0.289363E-05  0.617E-03    1.09       1.0  T
   7   -459.5093836 -0.597787E-05  0.250E-03    1.09       2.6  T
   8   -459.5093855 -0.186917E-05  0.995E-04    1.09       6.5  T
   9   -459.5093856 -0.136858E-06  0.602E-04    1.09      10.7  T
  10   -459.5093857 -0.141001E-07  0.399E-04    1.09      16.1  T
     SCC iter.                  ...        0 min,  1.958 sec
     gradient                   ...        0 min,  0.417 sec
 * total energy  :  -451.4609202 Eh     change       -0.2046535E-01 Eh
   gradient norm :     0.0366400 Eh/α   predicted    -0.2255747E-01 (  10.22%)
   displ. norm   :     0.8971193 α      lambda       -0.2214502E-01
   maximum displ.:     0.7039835 α      in ANC's #50, #54, #65, ...

........................................................................
.............................. CYCLE   25 ..............................
........................................................................
   1   -459.5477944 -0.459548E+03  0.108E-01    1.08       0.0  T
   2   -459.5477844  0.100431E-04  0.690E-02    1.08       1.0  T
   3   -459.5467394  0.104492E-02  0.484E-02    1.08       1.0  T
   4   -459.5478058 -0.106637E-02  0.128E-02    1.08       1.0  T
   5   -459.5478350 -0.291918E-04  0.788E-03    1.08       1.0  T
   6   -459.5478337  0.129200E-05  0.541E-03    1.08       1.2  T
   7   -459.5478378 -0.411926E-05  0.210E-03    1.08       3.1  T
   8   -459.5478393 -0.147826E-05  0.868E-04    1.08       7.4  T
   9   -459.5478394 -0.126162E-06  0.511E-04    1.08      12.6  T
  10   -459.5478394 -0.157588E-07  0.329E-04    1.08      19.6  T
     SCC iter.                  ...        0 min,  1.960 sec
     gradient                   ...        0 min,  0.416 sec
 * total energy  :  -451.4806369 Eh     change       -0.1971662E-01 Eh
   gradient norm :     0.0347750 Eh/α   predicted    -0.1998394E-01 (   1.36%)
   displ. norm   :     0.9005261 α      lambda       -0.1962096E-01
   maximum displ.:     0.7203656 α      in ANC's #50, #54, #65, ...

........................................................................
.............................. CYCLE   26 ..............................
........................................................................
   1   -459.5792746 -0.459579E+03  0.118E-01    1.07       0.0  T
   2   -459.5792466  0.280265E-04  0.753E-02    1.07       1.0  T
   3   -459.5778009  0.144571E-02  0.611E-02    1.07       1.0  T
   4   -459.5793041 -0.150322E-02  0.122E-02    1.07       1.0  T
   5   -459.5793213 -0.172031E-04  0.842E-03    1.07       1.0  T
   6   -459.5793196  0.169153E-05  0.564E-03    1.07       1.1  T
   7   -459.5793259 -0.627377E-05  0.202E-03    1.07       3.2  T
   8   -459.5793269 -0.101935E-05  0.857E-04    1.07       7.5  T
   9   -459.5793270 -0.105982E-06  0.473E-04    1.07      13.6  T
  10   -459.5793271 -0.215182E-07  0.295E-04    1.07      21.8  T
     SCC iter.                  ...        0 min,  1.956 sec
     gradient                   ...        0 min,  0.416 sec
 * total energy  :  -451.4976423 Eh     change       -0.1700542E-01 Eh
   gradient norm :     0.0289934 Eh/α   predicted    -0.1776627E-01 (   4.47%)
   displ. norm   :     0.8783225 α      lambda       -0.1885747E-01
   maximum displ.:     0.7085155 α      in ANC's #50, #54, #64, ...

........................................................................
.............................. CYCLE   27 ..............................
........................................................................
   1   -459.6135480 -0.459614E+03  0.108E-01    1.07       0.0  T
   2   -459.6135245  0.234752E-04  0.699E-02    1.07       1.0  T
   3   -459.6122724  0.125213E-02  0.576E-02    1.07       1.0  T
   4   -459.6135755 -0.130316E-02  0.128E-02    1.07       1.0  T
   5   -459.6135935 -0.179533E-04  0.896E-03    1.07       1.0  T
   6   -459.6135922  0.133812E-05  0.596E-03    1.07       1.1  T
   7   -459.6135994 -0.724842E-05  0.229E-03    1.07       2.8  T
   8   -459.6136009 -0.145636E-05  0.888E-04    1.07       7.2  T
   9   -459.6136010 -0.129467E-06  0.484E-04    1.07      13.3  T
  10   -459.6136010 -0.238787E-07  0.304E-04    1.07      21.2  T
     SCC iter.                  ...        0 min,  1.958 sec
     gradient                   ...        0 min,  0.415 sec
 * total energy  :  -451.5143085 Eh     change       -0.1666621E-01 Eh
   gradient norm :     0.0221473 Eh/α   predicted    -0.1670259E-01 (   0.22%)
   displ. norm   :     0.8883205 α      lambda       -0.1618861E-01
   maximum displ.:     0.7339797 α      in ANC's #50, #54, #47, ...

........................................................................
.............................. CYCLE   28 ..............................
........................................................................
   1   -459.6412106 -0.459641E+03  0.112E-01    1.07       0.0  T
   2   -459.6411936  0.170416E-04  0.724E-02    1.07       1.0  T
   3   -459.6400315  0.116205E-02  0.556E-02    1.07       1.0  T
   4   -459.6412372 -0.120569E-02  0.131E-02    1.07       1.0  T
   5   -459.6412516 -0.143925E-04  0.932E-03    1.07       1.0  T
   6   -459.6412527 -0.114356E-05  0.518E-03    1.07       1.2  T
   7   -459.6412585 -0.577931E-05  0.165E-03    1.07       3.9  T
   8   -459.6412591 -0.530490E-06  0.882E-04    1.07       7.3  T
   9   -459.6412592 -0.124750E-06  0.442E-04    1.07      14.5  T
     SCC iter.                  ...        0 min,  1.747 sec
     gradient                   ...        0 min,  0.414 sec
 * total energy  :  -451.5287885 Eh     change       -0.1447997E-01 Eh
   gradient norm :     0.0237113 Eh/α   predicted    -0.1448164E-01 (   0.01%)
   displ. norm   :     0.8708554 α      lambda       -0.1558477E-01
   maximum displ.:     0.7213365 α      in ANC's #50, #54, #47, ...

........................................................................
.............................. CYCLE   29 ..............................
........................................................................
   1   -459.6686780 -0.459669E+03  0.118E-01    1.07       0.0  T
   2   -459.6686679  0.100758E-04  0.761E-02    1.07       1.0  T
   3   -459.6676528  0.101507E-02  0.524E-02    1.07       1.0  T
   4   -459.6686995 -0.104665E-02  0.137E-02    1.07       1.0  T
   5   -459.6687145 -0.150147E-04  0.985E-03    1.07       1.0  T
   6   -459.6687152 -0.727318E-06  0.569E-03    1.07       1.1  T
   7   -459.6687225 -0.724377E-05  0.211E-03    1.07       3.0  T
   8   -459.6687237 -0.123458E-05  0.854E-04    1.07       7.5  T
   9   -459.6687238 -0.892001E-07  0.494E-04    1.07      13.0  T
  10   -459.6687238 -0.204615E-07  0.287E-04    1.07      22.4  T
     SCC iter.                  ...        0 min,  1.956 sec
     gradient                   ...        0 min,  0.415 sec
 * total energy  :  -451.5422886 Eh     change       -0.1350018E-01 Eh
   gradient norm :     0.0201582 Eh/α   predicted    -0.1370205E-01 (   1.50%)
   displ. norm   :     0.8505571 α      lambda       -0.1336365E-01
   maximum displ.:     0.7230510 α      in ANC's #50, #54, #47, ...

........................................................................
[...]
 281:  0.00 282:  0.00 283:  0.00 284:  0.00 285:  0.00 286:  0.00 287:  0.00 288:  0.00
 289:  0.00 290:  0.00 291:  0.00 292:  0.00 293:  0.00 294:  0.00 295:  0.00 296:  0.00
 297:  0.00 298:  0.00 299:  0.00 300:  0.00 301:  0.00 302:  0.00 303:  0.00 304:  0.00
 305:  0.00 306:  0.00 307:  0.00 308:  0.00 309:  0.00 310:  0.00 311:  0.00 312:  0.00
 313:  0.00 314:  0.00 315:  0.00 316:  0.00 317:  0.00 318:  0.00 319:  0.00 320:  0.00
 321:  0.00 322:  0.00 323:  0.00 324:  0.00 325:  0.00 326:  0.00 327:  0.00 328:  0.00
 329:  0.00 330:  0.00 331:  0.00 332:  0.00 333:  0.00 334:  0.00 335:  0.00 336:  0.00
 337:  0.00 338:  0.00 339:  0.00 340:  0.00 341:  0.00 342:  0.00 343:  0.00 344:  0.00
 345:  0.00 346:  0.00 347:  0.00 348:  0.00 349:  0.00 350:  0.00 351:  0.00 352:  0.00
 353:  0.00 354:  0.00 355:  0.00 356:  0.00 357:  0.00 358:  0.00 359:  0.00 360:  0.00
 361:  0.00 362:  0.00 363:  0.00 364:  0.00 365:  0.00 366:  0.00 367:  0.00 368:  0.00
 369:  0.00 370:  0.00 371:  0.00 372:  0.00 373:  0.00 374:  0.00 375:  0.00 376:  0.00
 377:  0.00 378:  0.00 379:  0.00 380:  0.00 381:  0.00 382:  0.00 383:  0.00 384:  0.00
 385:  0.00 386:  0.00 387:  0.00 388:  0.00 389:  0.00 390:  0.00 391:  0.00 392:  0.00
 393:  0.00 394:  0.00 395:  0.00 396:  0.00 397:  0.00 398:  0.00 399:  0.00 400:  0.00
 401:  0.00 402:  0.00 403:  0.00 404:  0.00 405:  0.00 406:  0.00 407:  0.00 408:  0.00
 409:  0.00 410:  0.00 411:  0.00 412:  0.00 413:  0.00 414:  0.00 415:  0.00 416:  0.00
 417:  0.00 418:  0.00 419:  0.00 420:  0.00 421:  0.00 422:  0.00 423:  0.00 424:  0.00
 425:  0.00 426:  0.00 427:  0.00 428:  0.00 429:  0.00 430:  0.00 431:  0.00 432:  0.00
 433:  0.00 434:  0.00 435:  0.00 436:  0.00 437:  0.00 438:  0.00 439:  0.00 440:  0.00
 441:  0.00 442:  0.00 443:  0.00 444:  0.00 445:  0.00 446:  0.00 447:  0.00 448:  0.00
 449:  0.00 450:  0.00 451:  0.00 452:  0.00 453:  0.00 454:  0.00 455:  0.00 456:  0.00
 457:  0.00 458:  0.00 459:  0.00 460:  0.00 461:  0.00 462:  0.00 463:  0.00 464:  0.00
 465:  0.00 466:  0.00 467:  0.00 468:  0.00 469:  0.00 470:  0.00 471:  0.00 472:  0.00
 473:  0.00 474:  0.00 475:  0.00 476:  0.00 477:  0.00 478:  0.00 479:  0.00 480:  0.00
 481:  0.00 482:  0.00 483:  0.00 484:  0.00 485:  0.00 486:  0.00 487:  0.00 488:  0.00
 489:  0.00 490:  0.00 491:  0.00 492:  0.00 493:  0.00 494:  0.00 495:  0.00 496:  0.00
 497:  0.00 498:  0.00 499:  0.00 500:  0.00 501:  0.00 502:  0.00 503:  0.00 504:  0.00
 505:  0.00 506:  0.00 507:  0.00 508:  0.00 509:  0.00 510:  0.00 511:  0.00 512:  0.00
 513:  0.00 514:  0.00 515:  0.00 516:  0.00 517:  0.00 518:  0.00 519:  0.00 520:  0.00
 521:  0.00 522:  0.00 523:  0.00 524:  0.00 525:  0.00 526:  0.00 527:  0.00 528:  0.00
 529:  0.00 530:  0.00 531:  0.00 532:  0.00 533:  0.00 534:  0.00 535:  0.00 536:  0.00
 537:  0.00 538:  0.00 539:  0.00 540:  0.00 541:  0.00 542:  0.00 543:  0.00 544:  0.00
 545:  0.00 546:  0.00 547:  0.00 548:  0.00 549:  0.00 550:  0.00 551:  0.00 552:  0.00
 553:  0.00 554:  0.00 555:  0.00 556:  0.00 557:  0.00 558:  0.00 559:  0.00 560:  0.00
 561:  0.00 562:  0.00 563:  0.00 564:  0.00 565:  0.00 566:  0.00 567:  0.00 568:  0.00
 569:  0.00 570:  0.00 571:  0.00 572:  0.00 573:  0.00 574:  0.00 575:  0.00 576:  0.00
 577:  0.00 578:  0.00 579:  0.00 580:  0.00 581:  0.00 582:  0.00 583:  0.00 584:  0.00
 585:  0.00 586:  0.00 587:  0.00 588:  0.00 589:  0.00 590:  0.00 591:  0.00 592:  0.00
 593:  0.00 594:  0.00 595:  0.00 596:  0.00 597:  0.00 598:  0.00 599:  0.00 600:  0.00
 601:  0.00 602:  0.00 603:  0.00 604:  0.00 605:  0.00 606:  0.00 607:  0.00 608:  0.00
 609:  0.00 610:  0.00 611:  0.00 612:  0.00 613:  0.00 614:  0.00 615:  0.00 616:  0.00
 617:  0.00 618:  0.00 619:  0.00 620:  0.00 621:  0.00 622:  0.00 623:  0.00 624:  0.00
 625:  0.00 626:  0.00 627:  0.00 628:  0.00 629:  0.00 630:  0.00 631:  0.00 632:  0.00
 633:  0.00 634:  0.00 635:  0.00 636:  0.00 637:  0.00 638:  0.00 639:  0.00 640:  0.00
 641:  0.00 642:  0.00 643:  0.00 644:  0.00 645:  0.00 646:  0.00 647:  0.00 648:  0.00
 649:  0.00 650:  0.00 651:  0.00 652:  0.00 653:  0.00 654:  0.00 655:  0.00 656:  0.00
 657:  0.00 658:  0.00 659:  0.00 660:  0.00 661:  0.00 662:  0.00 663:  0.00 664:  0.00
 665:  0.00 666:  0.00 667:  0.00 668:  0.00 669:  0.00 670:  0.00 671:  0.00 672:  0.00
 673:  0.00 674:  0.00 675:  0.00 676:  0.00 677:  0.00 678:  0.00 679:  0.00 680:  0.00
 681:  0.00 682:  0.00 683:  0.00 684:  0.00 685:  0.00 686:  0.00 687:  0.00 688:  0.00
 689:  0.00 690:  0.00 691:  0.00 692:  0.00 693:  0.00 694:  0.00 695:  0.00 696:  0.00
 697:  0.00 698:  0.00 699:  0.00 700:  0.00 701:  0.00 702:  0.00 703:  0.00 704:  0.00
 705:  0.00 706:  0.00 707:  0.00 708:  0.00 709:  0.00 710:  0.00 711:  0.00 712:  0.00
 713:  0.00 714:  0.00 715:  0.00 716:  0.00 717:  0.00 718:  0.00 719:  0.00 720:  0.00
 721:  0.00 722:  0.00 723:  0.00 724:  0.00 725:  0.00 726:  0.00
 output can be read by thermo (or use thermo option).
 writing <g98.out> molden fake output.
 recommended (thermochemical) frequency scaling factor: 1.0
           -------------------------------------------------
          |             Thermodynamic Functions             |
           -------------------------------------------------
 symmetry recognition skipped because # atoms >         200
 inverting freq            1   7.6376002376710268     
 inverting freq            2   6.1307037018796864     
 inverting freq            3   6.0031842286332857     
 inverting freq            4   5.3374986901310990     
 inverting freq            5   4.5058509038191472     
 inverting freq            6   4.0738825669244036     
 inverting freq            7   1.8375428434013032     

          ...................................................
          :                      SETUP                      :
          :.................................................:
          :  # frequencies                         719      :
          :  # imaginary freq.                       0      :
          :  linear?                             false      :
          :  only rotor calc.                    false      :
          :  symmetry                               C1      :
          :  rotational number                       1      :
          :  scaling factor                  1.0000000      :
          :  rotor cutoff                   50.0000000 cm⁻¹ :
          :  imag. cutoff                  -20.0000000 cm⁻¹ :
          :.................................................:

    mode    ω/cm⁻¹     T·S(HO)/kcal·mol⁻¹    T·S(FR)/kcal·mol⁻¹   T·S(vib)
   ------------------------------------------------------------------------
       1      7.64    -2.54814 (  0.05%)    -1.61317 ( 99.95%)    -1.61368
       2      6.13    -2.67834 (  0.02%)    -1.67828 ( 99.98%)    -1.67850
       3      6.00    -2.69080 (  0.02%)    -1.68450 ( 99.98%)    -1.68471
       4      5.34    -2.76043 (  0.01%)    -1.71932 ( 99.99%)    -1.71946
       5      4.51    -2.86078 (  0.01%)    -1.76950 ( 99.99%)    -1.76957
       6      4.07    -2.92049 (  0.00%)    -1.79936 (100.00%)    -1.79940
       7      1.84    -3.39220 (  0.00%)    -2.03521 (100.00%)    -2.03521
       8      2.71    -3.16097 (  0.00%)    -1.91960 (100.00%)    -1.91961
       9      4.33    -2.88384 (  0.01%)    -1.78103 ( 99.99%)    -1.78109
      10      5.23    -2.77227 (  0.01%)    -1.72525 ( 99.99%)    -1.72537
      11      6.30    -2.66261 (  0.03%)    -1.67041 ( 99.97%)    -1.67066
      12      6.72    -2.62416 (  0.03%)    -1.65118 ( 99.97%)    -1.65150
      13      7.08    -2.59341 (  0.04%)    -1.63581 ( 99.96%)    -1.63619
      14      7.19    -2.58379 (  0.04%)    -1.63100 ( 99.96%)    -1.63140
      15      7.52    -2.55757 (  0.05%)    -1.61789 ( 99.95%)    -1.61837
      16      8.92    -2.45614 (  0.10%)    -1.56717 ( 99.90%)    -1.56807
      17      9.63    -2.41093 (  0.14%)    -1.54456 ( 99.86%)    -1.54574
      18     10.44    -2.36310 (  0.19%)    -1.52063 ( 99.81%)    -1.52223
      19     11.77    -2.29215 (  0.31%)    -1.48515 ( 99.69%)    -1.48762
      20     12.14    -2.27341 (  0.35%)    -1.47578 ( 99.65%)    -1.47854
      21     14.73    -2.15910 (  0.75%)    -1.41860 ( 99.25%)    -1.42414
      22     19.03    -2.00734 (  2.06%)    -1.34268 ( 97.94%)    -1.35635
      23     22.37    -1.91171 (  3.85%)    -1.29483 ( 96.15%)    -1.31859
      24     22.63    -1.90485 (  4.03%)    -1.29139 ( 95.97%)    -1.31610
      25     22.91    -1.89762 (  4.22%)    -1.28778 ( 95.78%)    -1.31351
      26     23.19    -1.89033 (  4.42%)    -1.28413 ( 95.58%)    -1.31095
      27     23.37    -1.88572 (  4.56%)    -1.28182 ( 95.44%)    -1.30935
      28     23.75    -1.87628 (  4.84%)    -1.27709 ( 95.16%)    -1.30611
      29     24.96    -1.84692 (  5.84%)    -1.26240 ( 94.16%)    -1.29656
      30     25.65    -1.83073 (  6.48%)    -1.25429 ( 93.52%)    -1.29163
      31     26.91    -1.80240 (  7.74%)    -1.24011 ( 92.26%)    -1.28362
      32     27.27    -1.79455 (  8.13%)    -1.23618 ( 91.87%)    -1.28155
      33     29.58    -1.74646 ( 10.91%)    -1.21210 ( 89.09%)    -1.27038
      34     30.55    -1.72722 ( 12.24%)    -1.20246 ( 87.76%)    -1.26668
      35     34.86    -1.64918 ( 19.12%)    -1.16336 ( 80.88%)    -1.25625
      36     39.55    -1.57463 ( 28.14%)    -1.12598 ( 71.86%)    -1.25223
      37     43.42    -1.51954 ( 36.25%)    -1.09834 ( 63.75%)    -1.25105
      38     47.58    -1.46560 ( 45.05%)    -1.07127 ( 54.95%)    -1.24891
      39     58.86    -1.34024 ( 65.75%)    -1.00824 ( 34.25%)    -1.22654
      40     64.68    -1.28474 ( 73.69%)    -0.98029 ( 26.31%)    -1.20463
      41     71.01    -1.22994 ( 80.27%)    -0.95264 ( 19.73%)    -1.17522
      42     71.31    -1.22746 ( 80.53%)    -0.95139 ( 19.47%)    -1.17372
      43     78.03    -1.17468 ( 85.57%)    -0.92471 ( 14.43%)    -1.13861
      44     83.44    -1.13545 ( 88.58%)    -0.90485 ( 11.42%)    -1.10911
      45     86.49    -1.11446 ( 89.95%)    -0.89420 ( 10.05%)    -1.09233
      46     88.55    -1.10069 ( 90.77%)    -0.88722 (  9.23%)    -1.08100
      47     91.22    -1.08339 ( 91.72%)    -0.87843 (  8.28%)    -1.06642
      48     93.65    -1.06805 ( 92.49%)    -0.87064 (  7.51%)    -1.05322
      49     93.96    -1.06616 ( 92.58%)    -0.86967 (  7.42%)    -1.05157
      50     96.03    -1.05346 ( 93.15%)    -0.86321 (  6.85%)    -1.04044
      51     99.60    -1.03223 ( 94.03%)    -0.85240 (  5.97%)    -1.02149
      52     99.69    -1.03172 ( 94.05%)    -0.85213 (  5.95%)    -1.02103
      53    100.59    -1.02650 ( 94.25%)    -0.84947 (  5.75%)    -1.01631
      54    100.69    -1.02592 ( 94.27%)    -0.84918 (  5.73%)    -1.01579
      55    100.93    -1.02455 ( 94.32%)    -0.84848 (  5.68%)    -1.01455
      56    102.64    -1.01479 ( 94.67%)    -0.84350 (  5.33%)    -1.00566
      57    104.59    -1.00384 ( 95.04%)    -0.83791 (  4.96%)    -0.99561
      58    111.64    -0.96607 ( 96.13%)    -0.81860 (  3.87%)    -0.96037
      59    113.71    -0.95542 ( 96.40%)    -0.81314 (  3.60%)    -0.95030
      60    118.57    -0.93128 ( 96.93%)    -0.80075 (  3.07%)    -0.92728
      61    118.59    -0.93119 ( 96.94%)    -0.80070 (  3.06%)    -0.92719
      62    118.69    -0.93070 ( 96.95%)    -0.80045 (  3.05%)    -0.92672
      63    118.74    -0.93046 ( 96.95%)    -0.80033 (  3.05%)    -0.92649
      64    119.22    -0.92812 ( 97.00%)    -0.79913 (  3.00%)    -0.92425
      65    120.17    -0.92354 ( 97.09%)    -0.79677 (  2.91%)    -0.91985
      66    120.62    -0.92139 ( 97.13%)    -0.79567 (  2.87%)    -0.91779
      67    126.96    -0.89194 ( 97.65%)    -0.78050 (  2.35%)    -0.88932
      68    134.07    -0.86069 ( 98.10%)    -0.76435 (  1.90%)    -0.85886
      69    138.86    -0.84066 ( 98.35%)    -0.75397 (  1.65%)    -0.83922
      70    162.37    -0.75193 ( 99.11%)    -0.70762 (  0.89%)    -0.75153
      71    164.00    -0.74630 ( 99.14%)    -0.70466 (  0.86%)    -0.74595
      72    168.42    -0.73138 ( 99.23%)    -0.69678 (  0.77%)    -0.73111
      73    174.70    -0.71087 ( 99.33%)    -0.68593 (  0.67%)    -0.71070
      74    175.92    -0.70698 ( 99.35%)    -0.68387 (  0.65%)    -0.70683
      75    176.02    -0.70667 ( 99.35%)    -0.68370 (  0.65%)    -0.70652
      76    176.19    -0.70613 ( 99.36%)    -0.68342 (  0.64%)    -0.70598
      77    176.45    -0.70533 ( 99.36%)    -0.68299 (  0.64%)    -0.70519
      78    176.79    -0.70424 ( 99.36%)    -0.68241 (  0.64%)    -0.70410
      79    177.01    -0.70355 ( 99.37%)    -0.68205 (  0.63%)    -0.70342
      80    178.48    -0.69893 ( 99.39%)    -0.67959 (  0.61%)    -0.69882
      81    180.04    -0.69408 ( 99.41%)    -0.67701 (  0.59%)    -0.69398
      82    181.74    -0.68887 ( 99.43%)    -0.67424 (  0.57%)    -0.68879
      83    183.29    -0.68415 ( 99.45%)    -0.67172 (  0.55%)    -0.68408
      84    183.67    -0.68300 ( 99.45%)    -0.67111 (  0.55%)    -0.68293
      85    185.49    -0.67753 ( 99.47%)    -0.66819 (  0.53%)    -0.67748
      86    187.33    -0.67206 ( 99.50%)    -0.66526 (  0.50%)    -0.67203
      87    188.74    -0.66791 ( 99.51%)    -0.66304 (  0.49%)    -0.66788
      88    198.78    -0.63934 ( 99.60%)    -0.64768 (  0.40%)    -0.63937
      89    220.41    -0.58310 ( 99.74%)    -0.61709 (  0.26%)    -0.58319
      90    226.26    -0.56900 ( 99.76%)    -0.60933 (  0.24%)    -0.56910
      91    226.33    -0.56883 ( 99.76%)    -0.60924 (  0.24%)    -0.56893
      92    226.48    -0.56848 ( 99.76%)    -0.60904 (  0.24%)    -0.56857
      93    226.62    -0.56815 ( 99.76%)    -0.60886 (  0.24%)    -0.56825
      94    226.80    -0.56772 ( 99.76%)    -0.60862 (  0.24%)    -0.56781
      95    227.04    -0.56715 ( 99.77%)    -0.60831 (  0.23%)    -0.56725
      96    229.43    -0.56154 ( 99.77%)    -0.60521 (  0.23%)    -0.56164
      97    229.78    -0.56071 ( 99.78%)    -0.60475 (  0.22%)    -0.56081
      98    230.20    -0.55975 ( 99.78%)    -0.60421 (  0.22%)    -0.55984
      99    230.69    -0.55860 ( 99.78%)    -0.60358 (  0.22%)    -0.55870
     100    230.98    -0.55794 ( 99.78%)    -0.60321 (  0.22%)    -0.55804
     101    233.03    -0.55320 ( 99.79%)    -0.60058 (  0.21%)    -0.55330
     102    233.29    -0.55261 ( 99.79%)    -0.60026 (  0.21%)    -0.55271
     103    234.17    -0.55060 ( 99.79%)    -0.59914 (  0.21%)    -0.55070
     104    234.20    -0.55054 ( 99.79%)    -0.59911 (  0.21%)    -0.55064
     105    234.27    -0.55038 ( 99.79%)    -0.59902 (  0.21%)    -0.55048
     106    234.35    -0.55019 ( 99.79%)    -0.59891 (  0.21%)    -0.55029
     107    237.28    -0.54358 ( 99.80%)    -0.59523 (  0.20%)    -0.54368
     108    237.46    -0.54317 ( 99.80%)    -0.59501 (  0.20%)    -0.54327
     109    241.07    -0.53518 ( 99.82%)    -0.59055 (  0.18%)    -0.53528
     110    242.03    -0.53307 ( 99.82%)    -0.58937 (  0.18%)    -0.53318
     111    242.95    -0.53106 ( 99.82%)    -0.58824 (  0.18%)    -0.53116
     112    244.93    -0.52676 ( 99.83%)    -0.58583 (  0.17%)    -0.52686
     113    245.89    -0.52470 ( 99.83%)    -0.58468 (  0.17%)    -0.52481
     114    246.27    -0.52389 ( 99.83%)    -0.58422 (  0.17%)    -0.52399
     115    246.34    -0.52374 ( 99.83%)    -0.58414 (  0.17%)    -0.52384
     116    246.39    -0.52362 ( 99.83%)    -0.58407 (  0.17%)    -0.52372
     117    246.53    -0.52332 ( 99.83%)    -0.58390 (  0.17%)    -0.52342
     118    246.71    -0.52295 ( 99.83%)    -0.58369 (  0.17%)    -0.52305
     119    246.75    -0.52286 ( 99.83%)    -0.58364 (  0.17%)    -0.52296
     120    246.87    -0.52261 ( 99.83%)    -0.58350 (  0.17%)    -0.52271
     121    262.19    -0.49109 ( 99.87%)    -0.56566 (  0.13%)    -0.49119
     122    269.51    -0.47685 ( 99.88%)    -0.55751 (  0.12%)    -0.47694
     123    269.79    -0.47630 ( 99.88%)    -0.55719 (  0.12%)    -0.47640
     124    270.10    -0.47571 ( 99.88%)    -0.55685 (  0.12%)    -0.47580
     125    270.13    -0.47565 ( 99.88%)    -0.55682 (  0.12%)    -0.47575
     126    271.01    -0.47399 ( 99.88%)    -0.55586 (  0.12%)    -0.47409
     127    271.22    -0.47358 ( 99.88%)    -0.55563 (  0.12%)    -0.47368
     128    271.41    -0.47323 ( 99.88%)    -0.55543 (  0.12%)    -0.47332
     129    271.54    -0.47298 ( 99.89%)    -0.55528 (  0.11%)    -0.47307
     130    271.64    -0.47280 ( 99.89%)    -0.55518 (  0.11%)    -0.47289
     131    271.74    -0.47259 ( 99.89%)    -0.55506 (  0.11%)    -0.47269
     132    272.14    -0.47185 ( 99.89%)    -0.55463 (  0.11%)    -0.47195
     133    272.52    -0.47113 ( 99.89%)    -0.55422 (  0.11%)    -0.47123
     134    287.20    -0.44436 ( 99.91%)    -0.53867 (  0.09%)    -0.44445
     135    290.36    -0.43883 ( 99.91%)    -0.53543 (  0.09%)    -0.43892
     136    291.99    -0.43602 ( 99.91%)    -0.53378 (  0.09%)    -0.43611
     137    294.36    -0.43196 ( 99.92%)    -0.53138 (  0.08%)    -0.43204
     138    297.63    -0.42641 ( 99.92%)    -0.52811 (  0.08%)    -0.42649
   ------------------------------------------------------------------------

   temp. (K)  partition function   enthalpy   heat capacity  entropy
                                   cal/mol     cal/K/mol   cal/K/mol   J/K/mol
 298.15  VIB  0.327E+83            91192.056    576.242    583.962
         ROT  0.147E+11              888.752      2.981     49.510
         INT  0.482E+93            92080.809    579.223    633.473
         TR   0.125E+30             1481.254      4.968     49.352
         TOT                       93562.0626   584.1909   682.8251  2856.9403

       T/K    H(0)-H(T)+PV         H(T)/Eh          T*S/Eh         G(T)/Eh
   ------------------------------------------------------------------------
    298.15    0.149101E+00    0.178345E+01    0.324432E+00    0.145901E+01
   ------------------------------------------------------------------------

         :::::::::::::::::::::::::::::::::::::::::::::::::::::
         ::                  THERMODYNAMIC                  ::
         :::::::::::::::::::::::::::::::::::::::::::::::::::::
         :: total free energy        -450.193099236923 Eh   ::
         ::.................................................::
         :: total energy             -451.652112626312 Eh   ::
         :: zero point energy           1.634345003658 Eh   ::
         :: G(RRHO) w/o ZPVE           -0.175331614270 Eh   ::
         :: G(RRHO) contrib.            1.459013389388 Eh   ::
         :::::::::::::::::::::::::::::::::::::::::::::::::::::
imag cut-off (cm-1) :    5.00
 found            4  significant imaginary frequencies
 writing imag mode distorted coords to xtbhess.xyz
 for further optimization.

optimized geometry written to: xtbopt.xyz


           -------------------------------------------------
          | TOTAL ENERGY             -451.652112626312 Eh   |
          | TOTAL ENTHALPY           -449.868666985199 Eh   |
          | TOTAL FREE ENERGY        -450.193099236923 Eh   |
          | GRADIENT NORM               0.000976211641 Eh/α |
          | HOMO-LUMO GAP               0.954929454926 eV   |
           -------------------------------------------------

------------------------------------------------------------------------
 * finished run on 2021/11/20 at 05:57:53.343     
------------------------------------------------------------------------
 total:
 * wall-time:     0 d,  0 h, 37 min, 51.289 sec
 *  cpu-time:     0 d,  0 h, 37 min, 51.303 sec
 * ratio c/w:     1.000 speedup
 SCF:
 * wall-time:     0 d,  0 h,  0 min, 45.764 sec
 *  cpu-time:     0 d,  0 h,  0 min, 45.764 sec
 * ratio c/w:     1.000 speedup
 ANC optimizer:
 * wall-time:     0 d,  0 h,  3 min, 45.082 sec
 *  cpu-time:     0 d,  0 h,  3 min, 45.071 sec
 * ratio c/w:     1.000 speedup
 analytical hessian:
 * wall-time:     0 d,  0 h, 33 min, 20.105 sec
 *  cpu-time:     0 d,  0 h, 33 min, 20.129 sec
 * ratio c/w:     1.000 speedup

