242
 energy: -449.196064965416 gnorm: 2.012022195701 xtb: 6.4.1 (bd6e46d)
Ni       28.97656200000000    0.03786500000000   -0.01212500000000
C        31.30555300000000   -3.10892900000000    1.31056400000000
C        32.22166000000000   -2.16472100000000    1.26028200000000
C        31.81048100000000   -1.11081700000000    0.33899000000000
C        32.42935200000000    0.01352900000000   -0.00742000000000
C        31.72530900000000    1.23347700000000   -0.37152500000000
C        32.05342000000000    2.19353200000000   -1.21899900000000
C        31.01864000000000    3.20981800000000   -1.23589600000000
C        30.08237200000000    2.83335600000000   -0.38900500000000
N        30.48436200000000    1.60034500000000    0.17481200000000
C        28.82129800000000    3.47835500000000   -0.00985300000000
C        27.72608000000000    2.84357200000000    0.34090700000000
C        26.65245500000000    3.16152800000000    1.30993500000000
C        25.81489200000000    2.16477500000000    1.23276900000000
C        26.25319000000000    1.16109100000000    0.25231700000000
N        27.35812800000000    1.59994400000000   -0.23197500000000
C        25.64235500000000   -0.09218000000000   -0.16123100000000
C        26.30651500000000   -1.19668600000000   -0.41565600000000
C        25.93266700000000   -2.25962800000000   -1.37318300000000
C        26.88141400000000   -3.15338300000000   -1.28416400000000
C        27.86713800000000   -2.71593300000000   -0.30128600000000
N        27.51409200000000   -1.57012800000000    0.19551100000000
C        29.09802600000000   -3.37200400000000    0.14443500000000
C        30.22106700000001   -2.72614300000000    0.41155600000000
N        30.54966700000000   -1.47870100000000   -0.18684700000000
H        31.36581500000000   -4.01870900000000    1.92811100000000
H        33.13798800000000   -2.20467000000000    1.83833000000000
H        32.98078500000000    2.21032800000000   -1.82014200000000
H        31.03553900000000    4.11450600000000   -1.84851800000000
H        28.77357500000000    4.57315800000000   -0.01363000000000
H        26.59963300000000    4.04025300000000    1.93492800000000
H        24.90326200000001    2.12910500000000    1.85009300000000
H        24.54410400000000   -0.08926900000000   -0.26050200000000
H        25.06381100000000   -2.31209300000000   -2.02213300000000
H        26.87856800000000   -4.06969200000000   -1.88292300000000
H        29.06254300000000   -4.46780500000000    0.25636000000000
Ni      110.60605400000000   -0.00951100000000   -0.01655800000000
C       108.27706300000000    2.83728100000000    1.86694700000000
C       107.36095600000000    1.91879100000000    1.64237300000000
C       107.77213500000001    1.05409400000000    0.54155900000000
C       107.15326500000002    0.01352900000000   -0.00742000000000
C       107.85730700000002   -1.11769600000000   -0.59152300000000
C       107.52919600000000   -1.90386700000000   -1.60238900000000
C       108.56397600000000   -2.89937700000000   -1.80753000000000
C       109.50024400000000   -2.68656000000000   -0.90549900000000
N       109.09825400000000   -1.57954900000000   -0.12272800000000
C       110.76131800000000   -3.39070100000000   -0.65258600000000
C       111.85653600000001   -2.83200900000000   -0.19015300000000
C       112.93016100000000   -3.32421400000000    0.70306900000000
C       113.76772400000002   -2.33044700000000    0.81215400000000
C       113.32942700000001   -1.16229800000000    0.03491900000000
N       112.22448900000001   -1.50369000000000   -0.52238000000000
C       113.94026100000001    0.14593700000000   -0.13895100000000
C       113.27610100000001    1.27847000000000   -0.18405700000000
C       113.64995000000000    2.50059600000000   -0.92777200000000
C       112.70120199999999    3.36232300000000   -0.67449300000000
C       111.71547800000000    2.75012900000000    0.21017000000000
N       112.06852400000000    1.53205000000000    0.48578000000000
C       110.48459099999999    3.31212300000000    0.76986500000000
C       109.36154900000000    2.62791800000000    0.91253200000000
N       109.03294900000000    1.51314300000000    0.09309800000000
H       108.21680100000000    3.61670500000000    2.64255100000000
H       106.44462799999999    1.85081100000000    2.21779900000000
H       106.60183100000000   -1.80885100000000   -2.19621400000000
H       108.54707700000000   -3.67471100000000   -2.57735000000000
H       110.80904099999999   -4.46579900000000   -0.85940000000000
H       112.98298300000000   -4.30363100000000    1.15419600000000
H       114.67935400000002   -2.40991900000000    1.42538000000000
H       115.03851200000000    0.16149300000000   -0.23703800000000
H       114.51880500000000    2.67254000000000   -1.55572400000000
H       112.70404800000000    4.37380400000000   -1.09287100000000
H       110.52007300000000    4.36813900000000    1.08313400000000
C        35.40136300000000    0.02466000000000   -0.00337800000000
C        36.61689600000000   -0.00068300000000   -0.01385800000000
C        38.03841300000000   -0.02210700000000   -0.01803400000000
C        39.24697500000001   -0.02431800000000   -0.01792900000000
C        40.66805000000000   -0.00535800000000   -0.01855600000000
C        41.87919200000000    0.02466000000000   -0.00337800000000
C        50.97653900000000    0.02466000000000   -0.00337800000000
C        52.19207200000000   -0.00068300000000   -0.01385800000000
C        53.61358900000000   -0.02210700000000   -0.01803400000000
C        54.82215000000000   -0.02431800000000   -0.01792900000000
C        56.24322500000001   -0.00535800000000   -0.01855600000000
C        57.45436800000000    0.02466000000000   -0.00337800000000
C        66.55171400000000    0.02466000000000   -0.00337800000000
C        67.76724700000000   -0.00068300000000   -0.01385800000000
C        69.18876400000001   -0.02210700000000   -0.01803400000000
C        70.39732600000001   -0.02431800000000   -0.01792900000000
C        71.81840099999999   -0.00535800000000   -0.01855600000000
C        73.02954300000000    0.02466000000000   -0.00337800000000
C        82.12689000000000    0.02466000000000   -0.00337800000000
C        83.34242300000000   -0.00068300000000   -0.01385800000000
C        84.76394000000001   -0.02210700000000   -0.01803400000000
C        85.97250099999999   -0.02431800000000   -0.01792900000000
C        87.39357699999999   -0.00535800000000   -0.01855600000000
C        88.60471900000000    0.02466000000000   -0.00337800000000
C        97.70206500000000    0.02466000000000   -0.00337800000000
C        98.91759800000000   -0.00068300000000   -0.01385800000000
C       100.33911500000001   -0.02210700000000   -0.01803400000000
C       101.54767699999999   -0.02431800000000   -0.01792900000000
C       102.96875200000001   -0.00535800000000   -0.01855600000000
C       104.17989400000000    0.02466000000000   -0.00337800000000
Ni       46.46778200000001    0.03627700000000    0.00145000000000
C        44.18797200000000   -3.22517000000000   -0.90821600000000
C        43.23176200000001   -2.32582000000000   -1.01024200000000
C        43.62413600000001   -1.16351500000000   -0.20772600000000
C        42.98902000000000   -0.01224200000000    0.00454000000000
C        43.67447700000001    1.26235700000000    0.23076900000000
C        43.33918700000000    2.34095700000000    0.93500900000000
C        44.36372800000000    3.36027400000000    0.84442800000000
C        45.31432500000000    2.86334900000000    0.07106300000000
N        44.93733100000000    1.54674400000000   -0.34508000000000
C        46.56146500000000    3.47505100000000   -0.34580200000000
C        47.66301700000000    2.80779400000000   -0.67757400000000
C        48.65656300000000    3.05977800000000   -1.71174400000000
C        49.55044600000001    2.09891900000000   -1.61026000000000
C        49.17074800000000    1.18703500000000   -0.50628300000000
N        48.07583300000000    1.63635400000000    0.00108400000000
C        49.82795500000000   -0.01224200000000    0.00454000000000
C        49.20454400000000   -1.08142400000000    0.46605700000000
C        49.58325600000000   -2.01354000000000    1.54153200000000
C        48.64258700000000   -2.92768600000000    1.62739800000000
C        47.63428600000000   -2.63190700000000    0.62997100000000
N        47.97206100000000   -1.57852900000000   -0.01932400000000
C        46.38189300000000   -3.33891400000000    0.29877800000000
C        45.26801600000000   -2.74221700000000   -0.04856400000000
N        44.88590400000000   -1.45946000000000    0.36911900000000
H        44.18831600000000   -4.21624400000000   -1.39945000000000
H        42.32322800000000   -2.44751400000000   -1.59139000000000
H        42.41433500000000    2.45930900000000    1.51193500000000
H        44.39102300000000    4.34943800000000    1.30107800000000
H        46.64740500000000    4.57242900000000   -0.40782500000000
H        48.68923500000000    3.86599400000000   -2.43856800000000
H        50.44350800000000    1.98595100000000   -2.24403400000000
H        50.49800600000000   -1.93913300000000    2.15170200000000
H        48.66163400000001   -3.74129400000000    2.33566600000000
H        46.42037700000000   -4.43887300000000    0.35781400000000
Ni       62.04295800000001    0.03627700000000    0.00145000000000
C        59.76314700000000   -3.22517000000000   -0.90821600000000
C        58.80693800000001   -2.32582000000000   -1.01024200000000
C        59.19931200000001   -1.16351500000000   -0.20772600000000
C        58.56419500000000   -0.01224200000000    0.00454000000000
C        59.24965200000000    1.26235700000000    0.23076900000000
C        58.91436200000000    2.34095700000000    0.93500900000000
C        59.93890300000000    3.36027400000000    0.84442800000000
C        60.88950100000000    2.86334900000000    0.07106300000000
N        60.51250700000000    1.54674400000000   -0.34508000000000
C        62.13664000000000    3.47505100000000   -0.34580200000000
C        63.23819200000000    2.80779400000000   -0.67757400000000
C        64.23173900000000    3.05977800000000   -1.71174400000000
C        65.12562200000001    2.09891900000000   -1.61026000000000
C        64.74592400000000    1.18703500000000   -0.50628300000000
N        63.65100800000000    1.63635400000000    0.00108400000000
C        65.40313100000000   -0.01224200000000    0.00454000000000
C        64.77971900000000   -1.08142400000000    0.46605700000000
C        65.15843200000000   -2.01354000000000    1.54153200000000
C        64.21776300000001   -2.92768600000000    1.62739800000000
C        63.20946200000000   -2.63190700000000    0.62997100000000
N        63.54723700000001   -1.57852900000000   -0.01932400000000
C        61.95706800000000   -3.33891400000000    0.29877800000000
C        60.84319200000000   -2.74221700000000   -0.04856400000000
N        60.46108000000000   -1.45946000000000    0.36911900000000
H        59.76349200000000   -4.21624400000000   -1.39945000000000
H        57.89840300000000   -2.44751400000000   -1.59139000000000
H        57.98951000000000    2.45930900000000    1.51193500000000
H        59.96619800000000    4.34943800000000    1.30107800000000
H        62.22258000000000    4.57242900000000   -0.40782500000000
H        64.26441100000000    3.86599400000000   -2.43856800000000
H        66.01868300000000    1.98595100000000   -2.24403400000000
H        66.07318200000000   -1.93913300000000    2.15170200000000
H        64.23681000000001   -3.74129400000000    2.33566600000000
H        61.99555300000000   -4.43887300000000    0.35781400000000
Ni       77.61813300000001    0.03627700000000    0.00145000000000
C        75.33832300000000   -3.22517000000000   -0.90821600000000
C        74.38211300000002   -2.32582000000000   -1.01024200000000
C        74.77448700000001   -1.16351500000000   -0.20772600000000
C        74.13937100000000   -0.01224200000000    0.00454000000000
C        74.82482800000000    1.26235700000000    0.23076900000000
C        74.48953800000000    2.34095700000000    0.93500900000000
C        75.51407900000001    3.36027400000000    0.84442800000000
C        76.46467600000000    2.86334900000000    0.07106300000000
N        76.08768200000000    1.54674400000000   -0.34508000000000
C        77.71181600000000    3.47505100000000   -0.34580200000000
C        78.81336800000000    2.80779400000000   -0.67757400000000
C        79.80691400000001    3.05977800000000   -1.71174400000000
C        80.70079700000001    2.09891900000000   -1.61026000000000
C        80.32109900000000    1.18703500000000   -0.50628300000000
N        79.22618400000000    1.63635400000000    0.00108400000000
C        80.97830600000000   -0.01224200000000    0.00454000000000
C        80.35489500000000   -1.08142400000000    0.46605700000000
C        80.73360700000001   -2.01354000000000    1.54153200000000
C        79.79293900000000   -2.92768600000000    1.62739800000000
C        78.78463700000000   -2.63190700000000    0.62997100000000
N        79.12241200000000   -1.57852900000000   -0.01932400000000
C        77.53224400000001   -3.33891400000000    0.29877800000000
C        76.41836700000000   -2.74221700000000   -0.04856400000000
N        76.03625500000000   -1.45946000000000    0.36911900000000
H        75.33866700000000   -4.21624400000000   -1.39945000000000
H        73.47357900000000   -2.44751400000000   -1.59139000000000
H        73.56468599999999    2.45930900000000    1.51193500000000
H        75.54137400000000    4.34943800000000    1.30107800000000
H        77.79775600000001    4.57242900000000   -0.40782500000000
H        79.83958600000000    3.86599400000000   -2.43856800000000
H        81.59385899999999    1.98595100000000   -2.24403400000000
H        81.64835700000000   -1.93913300000000    2.15170200000000
H        79.81198500000001   -3.74129400000000    2.33566600000000
H        77.57072800000000   -4.43887300000000    0.35781400000000
Ni       93.19330900000000    0.03627700000000    0.00145000000000
C        90.91349800000002   -3.22517000000000   -0.90821600000000
C        89.95728900000000   -2.32582000000000   -1.01024200000000
C        90.34966300000001   -1.16351500000000   -0.20772600000000
C        89.71454600000000   -0.01224200000000    0.00454000000000
C        90.40000400000001    1.26235700000000    0.23076900000000
C        90.06471300000000    2.34095700000000    0.93500900000000
C        91.08925499999999    3.36027400000000    0.84442800000000
C        92.03985200000000    2.86334900000000    0.07106300000000
N        91.66285800000000    1.54674400000000   -0.34508000000000
C        93.28699100000000    3.47505100000000   -0.34580200000000
C        94.38854300000000    2.80779400000000   -0.67757400000000
C        95.38209000000001    3.05977800000000   -1.71174400000000
C        96.27597299999999    2.09891900000000   -1.61026000000000
C        95.89627500000000    1.18703500000000   -0.50628300000000
N        94.80135900000001    1.63635400000000    0.00108400000000
C        96.55348200000002   -0.01224200000000    0.00454000000000
C        95.93007000000000   -1.08142400000000    0.46605700000000
C        96.30878300000001   -2.01354000000000    1.54153200000000
C        95.36811400000001   -2.92768600000000    1.62739800000000
C        94.35981300000002   -2.63190700000000    0.62997100000000
N        94.69758800000001   -1.57852900000000   -0.01932400000000
C        93.10742000000000   -3.33891400000000    0.29877800000000
C        91.99354300000000   -2.74221700000000   -0.04856400000000
N        91.61143100000000   -1.45946000000000    0.36911900000000
H        90.91384300000001   -4.21624400000000   -1.39945000000000
H        89.04875400000000   -2.44751400000000   -1.59139000000000
H        89.13986100000000    2.45930900000000    1.51193500000000
H        91.11654900000001    4.34943800000000    1.30107800000000
H        93.37293099999999    4.57242900000000   -0.40782500000000
H        95.41476200000000    3.86599400000000   -2.43856800000000
H        97.16903400000000    1.98595100000000   -2.24403400000000
H        97.22353300000000   -1.93913300000000    2.15170200000000
H        95.38716100000002   -3.74129400000000    2.33566600000000
H        93.14590400000000   -4.43887300000000    0.35781400000000
242
 energy: -450.027183673874 gnorm: 0.852905181832 xtb: 6.4.1 (bd6e46d)
Ni       28.98007660590087    0.03755402284331   -0.01165656240039
C        31.30405580596162   -3.11508290392965    1.30780478967132
C        32.22939177150631   -2.16328341657291    1.26002431129488
C        31.80710755499214   -1.11457968602331    0.34136060024703
C        32.41990117985517    0.02571704196872   -0.00952527051059
C        31.71960905135571    1.22577681294395   -0.36432287371906
C        32.06012045041163    2.21170377243438   -1.23177076182058
C        31.03795817341370    3.21135933543917   -1.24609135938497
C        30.07519005525077    2.82024124580993   -0.38152908641495
N        30.47011696496381    1.58947103896678    0.17613879967344
C        28.83266490982419    3.48101102518178   -0.01136971639587
C        27.71707127288503    2.83445141821091    0.34232675065586
C        26.65646178257899    3.16720127160316    1.30253928057094
C        25.80002324977505    2.15888666279746    1.23559435201128
C        26.24837979864295    1.16128803695635    0.26042275064382
N        27.37855030451474    1.59067227148696   -0.22665942063528
C        25.63434431251248   -0.07890869956502   -0.15751744368705
C        26.30996726411083   -1.20199047975933   -0.41857685274289
C        25.92694025828577   -2.25676655253229   -1.36757283346422
C        26.88667033325254   -3.16550283113693   -1.28423197959936
C        27.87339448554683   -2.72261635392729   -0.30439772861544
N        27.52003373546771   -1.55563780589841    0.18611047782459
C        29.08557365708781   -3.37765899476939    0.14018231613604
C        30.22714447400402   -2.71570166487194    0.41233741938056
N        30.54507326553761   -1.47541487878868   -0.17466803574280
H        31.36273245696250   -4.01568809998862    1.92477135284593
H        33.13896724034085   -2.20112997950525    1.83709439207308
H        32.97827991957929    2.21308063610786   -1.81980854609548
H        31.03755175978125    4.11256220484579   -1.84841542723397
H        28.77880229324696    4.57199750816361   -0.01127873522726
H        26.60196788149297    4.03948556780332    1.93317138429045
H        24.90315961045544    2.12567756997456    1.84880031754467
H        24.54556480539629   -0.08693014111906   -0.26254831885725
H        25.06491790381805   -2.30859165770872   -2.01950281457114
H        26.88253366352507   -4.06994212454341   -1.88113441286551
H        29.06118141100103   -4.46568348556814    0.25658243099453
Ni      110.60254129564203   -0.00928865833778   -0.01604063365901
C       108.27856764395644    2.84383987317986    1.86537810174605
C       107.35323028603804    1.91742670090441    1.64184004923803
C       107.77553455115361    1.05737636160123    0.54458036410911
C       107.16259579197715    0.00201517654560   -0.01174415169769
C       107.86300614573594   -1.11146798918942   -0.58302875359276
C       107.52249857158220   -1.91934903353144   -1.61829002943030
C       108.54466916009828   -2.89900256482218   -1.81782596960584
C       109.50742595345447   -2.67506664723584   -0.89572401691917
N       109.11248356385613   -1.56909918155190   -0.11941875701003
C       110.74994698328386   -3.39303245843356   -0.65456963839651
C       111.86554558278787   -2.82330617771910   -0.18706271293557
C       112.92615147239009   -3.32841531869528    0.69474610884022
C       113.78259181522931   -2.32518111302917    0.81602155545470
C       113.33423972189541   -1.16399508441713    0.04284699982069
N       112.20406715747201   -1.49557022063537   -0.51543925729980
C       113.94827164424237    0.13220399144640   -0.13776271464517
C       113.27264628196912    1.28422553062839   -0.18594417769522
C       113.65567493224906    2.49674119247980   -0.92278906132403
C       112.69594387938585    3.37424508057591   -0.67231009426747
C       111.70922085186641    2.75727472600792    0.20835265790779
N       112.06258275200322    1.51955448026948    0.47385462984466
C       110.49704285116644    3.31847367220731    0.76673397395501
C       109.35547241564083    2.61751684832129    0.91136729105217
N       109.03755530488729    1.50764185131509    0.10447616742420
H       108.21988358172023    3.61435620160602    2.63870966744586
H       106.44364865447187    1.84756518901459    2.21592743552530
H       106.60433758114017   -1.81161380373333   -2.19640582452173
H       108.54506645311353   -3.67282122253426   -2.57689199258891
H       110.80381561421545   -4.46509766176901   -0.85687764646699
H       112.98064817803906   -4.30255195915323    1.15261236411207
H       114.67945730469064   -2.40631138340880    1.42474571733840
H       115.03705162170696    0.15957455279641   -0.23948135823297
H       114.51769800483267    2.66861129744098   -1.55378881497774
H       112.70008191142196    4.37371844809629   -1.09106662795042
H       110.52143445887016    4.36601580501820    1.08295815811980
C        35.40099864120065    0.02443923289343   -0.00328345728577
C        36.62387428596401   -0.00091250239524   -0.01379260949062
C        38.02685801489960   -0.02168868831909   -0.01801740020437
C        39.25094380986496   -0.02383095091967   -0.01794599442368
C        40.62092169974582   -0.00569244483853   -0.01842299485452
C        41.80957013858826    0.03211093887157   -0.00465823326914
C        51.03709032017662    0.03034947994263   -0.00287528412455
C        52.23184721794773   -0.00108939763828   -0.01350352666936
C        53.60541446701912   -0.02157375894301   -0.01857335877090
C        54.82834657748891   -0.02380131195296   -0.01794998085560
C        56.19643695369570   -0.00570206554593   -0.01837925360600
C        57.38474230317907    0.03207252092138   -0.00486287632220
C        66.61225021929675    0.03035576957769   -0.00279317743622
C        67.80701048354464   -0.00107130095394   -0.01348621107305
C        69.18060368959947   -0.02158077658619   -0.01858986857373
C        70.40350097017588   -0.02380064168731   -0.01794732442299
C        71.77165204537748   -0.00569643674948   -0.01837742859838
C        72.95989316445886    0.03206712291358   -0.00488606531573
C        82.18739353308887    0.03035522992276   -0.00278284091465
C        83.38225321180367   -0.00107120178399   -0.01347595248812
C        84.75573105819804   -0.02158384859225   -0.01859202583035
C        85.97872044784044   -0.02379748788572   -0.01794714168528
C        87.34679246543172   -0.00569473303817   -0.01837702408236
C        88.53507089124713    0.03206020151302   -0.00489589453286
C        97.76280234857411    0.03038795176818   -0.00273729807653
C        98.95755449390425   -0.00099042025460   -0.01335818284947
C       100.33402493916121   -0.02156871143781   -0.01855995633655
C       101.55787121456089   -0.02388853816962   -0.01808057284604
C       102.96105132835193   -0.00571110799873   -0.01838140668879
C       104.18154068073378    0.02436043607578   -0.00325638494472
Ni       46.46487864197645    0.03707457079660    0.00089546688404
C        44.19050195288379   -3.23688901846692   -0.90614122753589
C        43.22834130195861   -2.32303763273505   -1.00735957334511
C        43.65626943040235   -1.18237984913688   -0.20974162075447
C        43.05262332729904   -0.00183422974299    0.00572263734399
C        43.70216487890630    1.26630818072140    0.22764859309552
C        43.33415867786329    2.35774423123626    0.94308406310888
C        44.34807740897384    3.36191935835828    0.85073747348725
C        45.32329452263193    2.85188453631219    0.06536720418066
N        44.95189947457332    1.54101083998545   -0.34009498411895
C        46.55249805476346    3.47803714925906   -0.34538052415753
C        47.66969431160823    2.80131311136914   -0.67840776090526
C        48.65697795470525    3.06540349709362   -1.70694554904913
C        49.56182432874267    2.09086446924064   -1.61000425159243
C        49.16302108578604    1.19132051693635   -0.51690492618370
N        48.05376540680414    1.63070137007976   -0.00388348849622
C        49.78360743462334   -0.00208594262714   -0.00082221067502
C        49.17994919686976   -1.09808897300859    0.47432438210040
C        49.59092705996901   -2.00940258223205    1.53738519660576
C        48.63884905775650   -2.93752345832143    1.62831382994156
C        47.62674297349478   -2.64038912423467    0.63516893414683
N        47.96291837255524   -1.56036715113970   -0.01749284818723
C        46.39633204548348   -3.34542169200690    0.30468658522689
C        45.25799876049924   -2.73437084181629   -0.05292469187210
N        44.89374481482199   -1.45401354097767    0.35603592338422
H        44.19007415953602   -4.21349879409582   -1.39759805521597
H        42.32400165670273   -2.44345690380620   -1.58963226270821
H        42.41517952855670    2.46003235502087    1.51178375825261
H        44.38731372349669    4.34666631120573    1.30168638965804
H        46.64147665076676    4.57023830458191   -0.40983644355413
H        48.68640044222186    3.86515592102110   -2.43575983831422
H        50.44212594784306    1.98368165695372   -2.24202354436858
H        50.49484084462787   -1.93704706113259    2.14822056615429
H        48.65892055479954   -3.74319147435744    2.33584273026368
H        46.42209247604762   -4.43745416975127    0.35674265216105
Ni       62.03971077404412    0.03697992101395    0.00093787824486
C        59.76546803559992   -3.23676820592090   -0.90629653997962
C        58.80339203751742   -2.32332520851586   -1.00724533251983
C        59.23127362315944   -1.18202729649266   -0.20942895799955
C        58.62803696282517   -0.00205193992703    0.00560721273217
C        59.27723479292640    1.26637682576434    0.22760411013021
C        58.90930621099868    2.35774407340098    0.94307217516203
C        59.92318493721093    3.36185796391120    0.85077621689122
C        60.89860061130609    2.85172324663220    0.06527166845211
N        60.52742235804713    1.54085895288913   -0.33992025987171
C        62.12760577359210    3.47798580397656   -0.34532772273810
C        63.24490811849893    2.80121329651158   -0.67840012301541
C        64.23214982187648    3.06541076505399   -1.70695237518677
C        65.13701839904455    2.09087612444515   -1.60999778481698
C        64.73800851298125    1.19135416453747   -0.51696718799429
N        63.62889393728306    1.63062473478378   -0.00404403504978
C        65.35872786796078   -0.00218541147479   -0.00079207123602
C        64.75511486243948   -1.09804996895399    0.47422743861252
C        65.16610332418014   -2.00944916009932    1.53743873715402
C        64.21412668091722   -2.93755052729432    1.62829417897843
C        63.20195681137091   -2.64012532277025    0.63520146714615
N        63.53799299815135   -1.56029975651519   -0.01736386682995
C        61.97133183497589   -3.34538013832519    0.30462654052950
C        60.83344656283997   -2.73417103265766   -0.05279533031977
N        60.46946450874684   -1.45390375005952    0.35588927300595
H        59.76521563886286   -4.21349060548882   -1.39758271193589
H        57.89917188969334   -2.44347253409922   -1.58966056081965
H        57.99036174010802    2.46003915797990    1.51179617722833
H        59.96245981404540    4.34667170428981    1.30164256979818
H        62.21664933320643    4.57022244069049   -0.40981590707650
H        64.26157827774749    3.86515916393451   -2.43575337983411
H        66.01730000830635    1.98368408100897   -2.24201094087203
H        66.07001991916539   -1.93705865970727    2.14821912091540
H        64.23408789506480   -3.74317988576704    2.33584405969204
H        61.99727041621677   -4.43742629141530    0.35668520467871
Ni       77.61483745747032    0.03696187708636    0.00093412793360
C        75.34061724940197   -3.23675164096525   -0.90631836911457
C        74.37855598924295   -2.32336405474767   -1.00723433613837
C        74.80642164481570   -1.18196543744014   -0.20942109066197
C        74.20323864299147   -0.00207947632003    0.00559111826780
C        74.85236609337210    1.26638749339909    0.22763893977827
C        74.48447128577681    2.35772803205039    0.94306710064389
C        75.49836406830207    3.36184126125001    0.85078438088278
C        76.47378307182495    2.85170471465879    0.06526215804613
N        76.10264700264490    1.54086234886958   -0.33990633772412
C        77.70278102170219    3.47798122327908   -0.34533241106766
C        78.82008380771661    2.80122647153306   -0.67840502298087
C        79.80732259422616    3.06542450428946   -1.70694345539669
C        80.71218378408413    2.09086617436577   -1.61000171101652
C        80.31313213499328    1.19138165171871   -0.51698187030547
N        79.20410641271602    1.63062330278279   -0.00405660471255
C        80.93393997598142   -0.00220420446009   -0.00079303593798
C        80.33029468965189   -1.09807499026158    0.47422863947252
C        80.74126767033138   -2.00941766503131    1.53743301194095
C        79.78928708709961   -2.93756876921618    1.62826970982259
C        78.77717167469642   -2.64010355120706    0.63524258616124
N        79.11319472606741   -1.56030437545401   -0.01734233636670
C        77.54644913078943   -3.34538551389634    0.30461345899176
C        76.40866272550861   -2.73417883763085   -0.05276024876473
N        76.04470674328928   -1.45387239604984    0.35588660645623
H        75.34038537645375   -4.21349005397521   -1.39758162783372
H        73.47434742967701   -2.44347462159932   -1.58966681882627
H        73.56553764616497    2.46003881399101    1.51180085986004
H        75.53763224200740    4.34667319602730    1.30163493142291
H        77.79182309585379    4.57022150590835   -0.40982308103069
H        79.83675357954799    3.86516113800484   -2.43575302265568