      -----------------------------------------------------------      
     |                   =====================                   |     
     |                           x T B                           |     
     |                   =====================                   |     
     |                         S. Grimme                         |     
     |          Mulliken Center for Theoretical Chemistry        |     
     |                    University of Bonn                     |     
      -----------------------------------------------------------      

   * xtb version 6.4.1 (bd6e46d) compiled by 'conda@4901f00b25ba' on 2021-06-10

   xtb is free software: you can redistribute it and/or modify it under
   the terms of the GNU Lesser General Public License as published by
   the Free Software Foundation, either version 3 of the License, or
   (at your option) any later version.
   
   xtb is distributed in the hope that it will be useful,
   but WITHOUT ANY WARRANTY; without even the implied warranty of
   MERCHANTABILITY or FITNESS FOR A PARTICULAR PURPOSE.  See the
   GNU Lesser General Public License for more details.
   
   Cite this work as:
   * C. Bannwarth, E. Caldeweyher, S. Ehlert, A. Hansen, P. Pracht,
     J. Seibert, S. Spicher, S. Grimme, WIREs Comput. Mol. Sci., 2020, 11,
     e01493. DOI: 10.1002/wcms.1493
   
   for GFN2-xTB:
   * C. Bannwarth, S. Ehlert and S. Grimme., J. Chem. Theory Comput., 2019,
     15, 1652-1671. DOI: 10.1021/acs.jctc.8b01176
   for GFN1-xTB:
   * S. Grimme, C. Bannwarth, P. Shushkov, J. Chem. Theory Comput., 2017,
     13, 1989-2009. DOI: 10.1021/acs.jctc.7b00118
   for GFN0-xTB:
   * P. Pracht, E. Caldeweyher, S. Ehlert, S. Grimme, ChemRxiv, 2019, preprint.
     DOI: 10.26434/chemrxiv.8326202.v1
   for GFN-FF:
   * S. Spicher and S. Grimme, Angew. Chem. Int. Ed., 2020, 59, 15665-15673.
     DOI: 10.1002/anie.202004239
   
   for DFT-D4:
   * E. Caldeweyher, C. Bannwarth and S. Grimme, J. Chem. Phys., 2017,
     147, 034112. DOI: 10.1063/1.4993215
   * E. Caldeweyher, S. Ehlert, A. Hansen, H. Neugebauer, S. Spicher,
     C. Bannwarth and S. Grimme, J. Chem. Phys., 2019, 150, 154122.
     DOI: 10.1063/1.5090222
   * E. Caldeweyher, J.-M. Mewes, S. Ehlert and S. Grimme, Phys. Chem. Chem. Phys.
     2020, 22, 8499-8512. DOI: 10.1039/D0CP00502A
   
   for sTDA-xTB:
   * S. Grimme and C. Bannwarth, J. Chem. Phys., 2016, 145, 054103.
     DOI: 10.1063/1.4959605
   
   in the mass-spec context:
   * V. Asgeirsson, C. Bauer and S. Grimme, Chem. Sci., 2017, 8, 4879.
     DOI: 10.1039/c7sc00601b
   * J. Koopman and S. Grimme, ACS Omega 2019, 4, 12, 15120-15133.
     DOI: 10.1021/acsomega.9b02011
   
   for metadynamics refer to:
   * S. Grimme, J. Chem. Theory Comput., 2019, 155, 2847-2862
     DOI: 10.1021/acs.jctc.9b00143
   
   for SPH calculations refer to:
   * S. Spicher and S. Grimme, J. Chem. Theory Comput., 2021, 17, 1701-1714
     DOI: 10.1021/acs.jctc.0c01306
   
   with help from (in alphabetical order)
   P. Atkinson, C. Bannwarth, F. Bohle, G. Brandenburg, E. Caldeweyher
   M. Checinski, S. Dohm, S. Ehlert, S. Ehrlich, I. Gerasimov, J. Koopman
   C. Lavigne, S. Lehtola, F. März, M. Müller, F. Musil, H. Neugebauer
   J. Pisarek, C. Plett, P. Pracht, J. Seibert, P. Shushkov, S. Spicher
   M. Stahn, M. Steiner, T. Strunk, J. Stückrath, T. Rose, and J. Unsleber
   
 * started run on 2021/11/21 at 19:23:15.140     

           -------------------------------------------------
          |                Calculation Setup                |
           -------------------------------------------------

          program call               : /home/jeff/miniconda3/bin/xtb /home/jeff/chem/final-year-proejct/free_base/_4_8_outenergy/input_structure.xyz --gfn 2 --parallel 1 --etemp 300 --chrg 0 --uhf 0 -I det_control.in
          coordinate file            : /home/jeff/chem/final-year-proejct/free_base/_4_8_outenergy/input_structure.xyz
          omp threads                :                     1
          number of atoms            :                   318
          number of electrons        :                  1010
          charge                     :                     0
          spin                       :                   0.0
          first test random number   :      0.93176883247092

   ID    Z sym.   atoms
    1    6 C      1-8, 10-14, 16-20, 22, 23, 38-45, 47-51, 53-57, 59, 60,
                  75-110, 112-116, 118-122, 124, 125, 139-146, 148-152,
                  154-158, 160, 161, 175-182, 184-188, 190-194, 196, 197,
                  211-218, 220-224, 226-230, 232, 233, 247-254, 256-260,
                  262-266, 268, 269, 283-290, 292-296, 298-302, 304, 305
    2    7 N      9, 15, 21, 24, 46, 52, 58, 61, 111, 117, 123, 126, 147,
                  153, 159, 162, 183, 189, 195, 198, 219, 225, 231, 234, 255,
                  261, 267, 270, 291, 297, 303, 306
    3    1 H      25-37, 62-74, 127-138, 163-174, 199-210, 235-246, 271-282,
                  307-318

           -------------------------------------------------
          |                 G F N 2 - x T B                 |
           -------------------------------------------------

        Reference                      10.1021/acs.jctc.8b01176
      * Hamiltonian:
        H0-scaling (s, p, d)           1.850000    2.230000    2.230000
        zeta-weighting                 0.500000
      * Dispersion:
        s8                             2.700000
        a1                             0.520000
        a2                             5.000000
        s9                             5.000000
      * Repulsion:
        kExp                           1.500000    1.000000
        rExp                           1.000000
      * Coulomb:
        alpha                          2.000000
        third order                    shell-resolved
        anisotropic                    true
        a3                             3.000000
        a5                             4.000000
        cn-shift                       1.200000
        cn-exp                         4.000000
        max-rad                        5.000000


          ...................................................
          :                      SETUP                      :
          :.................................................:
          :  # basis functions                 978          :
          :  # atomic orbitals                 978          :
          :  # shells                          538          :
          :  # electrons                      1010          :
          :  max. iterations                   250          :
          :  Hamiltonian                  GFN2-xTB          :
          :  restarted?                      false          :
          :  GBSA solvation                  false          :
          :  PC potential                    false          :
          :  electronic temp.          300.0000000     K    :
          :  accuracy                    1.0000000          :
          :  -> integral cutoff          0.2500000E+02      :
          :  -> integral neglect         0.1000000E-07      :
          :  -> SCF convergence          0.1000000E-05 Eh   :
          :  -> wf. convergence          0.1000000E-03 e    :
          :  Broyden damping             0.4000000          :
          ...................................................

 iter      E             dE          RMSdq      gap      omega  full diag
   1   -554.8142174 -0.554814E+03  0.569E+00    0.46       0.0  T
   2   -555.6191026 -0.804885E+00  0.366E+00    0.73       1.0  T
   3   -555.3944931  0.224609E+00  0.156E+00    0.55       1.0  T
   4   -555.6273950 -0.232902E+00  0.617E-01    0.72       1.0  T
   5   -555.7765647 -0.149170E+00  0.200E-01    0.70       1.0  T
   6   -555.7918105 -0.152458E-01  0.816E-02    0.70       1.0  T
   7   -555.7926527 -0.842258E-03  0.544E-02    0.70       1.0  T
   8   -555.7936458 -0.993088E-03  0.212E-02    0.70       1.0  T
   9   -555.7937391 -0.932362E-04  0.110E-02    0.70       1.0  T
  10   -555.7937485 -0.944899E-05  0.609E-03    0.70       1.0  T
  11   -555.7937629 -0.144256E-04  0.155E-03    0.70       3.6  T
  12   -555.7937638 -0.890498E-06  0.756E-04    0.70       7.4  T
  13   -555.7937640 -0.211125E-06  0.364E-04    0.70      15.4  T

   *** convergence criteria satisfied after 13 iterations ***

         #    Occupation            Energy/Eh            Energy/eV
      -------------------------------------------------------------
         1        2.0000           -0.6856709             -18.6581
       ...           ...                  ...                  ...
       499        2.0000           -0.3651736              -9.9369
       500        2.0000           -0.3619782              -9.8499
       501        2.0000           -0.3581013              -9.7444
       502        2.0000           -0.3539518              -9.6315
       503        2.0000           -0.3498976              -9.5212
       504        2.0000           -0.3463614              -9.4250
       505        2.0000           -0.3440315              -9.3616 (HOMO)
       506        0.0000           -0.3181875              -8.6583 (LUMO)
       507        0.0000           -0.3152450              -8.5783
       508                         -0.3114011              -8.4737
       509                         -0.3071043              -8.3567
       510                         -0.3027883              -8.2393
       ...                                ...                  ...
       978                          1.6334623              44.4488
      -------------------------------------------------------------
                  HL-Gap            0.0258440 Eh            0.7033 eV
             Fermi-level           -0.3310907 Eh           -9.0094 eV

 SCC (total)                   0 d,  0 h,  0 min,  5.179 sec
 SCC setup                      ...        0 min,  0.017 sec (  0.329%)
 Dispersion                     ...        0 min,  0.034 sec (  0.656%)
 classical contributions        ...        0 min,  0.003 sec (  0.056%)
 integral evaluation            ...        0 min,  0.246 sec (  4.758%)
 iterations                     ...        0 min,  4.209 sec ( 81.267%)
 molecular gradient             ...        0 min,  0.627 sec ( 12.099%)
 printout                       ...        0 min,  0.043 sec (  0.834%)

         :::::::::::::::::::::::::::::::::::::::::::::::::::::
         ::                     SUMMARY                     ::
         :::::::::::::::::::::::::::::::::::::::::::::::::::::
         :: total energy            -545.311390262925 Eh    ::
         :: gradient norm              0.000671903017 Eh/a0 ::
         :: HOMO-LUMO gap              0.703251168330 eV    ::
         ::.................................................::
         :: SCC energy              -555.793764031257 Eh    ::
         :: -> isotropic ES            0.272001530307 Eh    ::
         :: -> anisotropic ES         -0.028775862434 Eh    ::
         :: -> anisotropic XC          0.381995112423 Eh    ::
         :: -> dispersion             -0.455664060395 Eh    ::
         :: repulsion energy          10.490864063331 Eh    ::
         :: add. restraining           0.000000000000 Eh    ::
         :: total charge               0.000000000014 e     ::
         :::::::::::::::::::::::::::::::::::::::::::::::::::::

           -------------------------------------------------
          |                Property Printout                |
           -------------------------------------------------

    * Orbital Energies and Occupations

         #    Occupation            Energy/Eh            Energy/eV
      -------------------------------------------------------------
         1        2.0000           -0.6856709             -18.6581
       ...           ...                  ...                  ...
       493        2.0000           -0.3706416             -10.0857
       494        2.0000           -0.3703674             -10.0782
       495        2.0000           -0.3703595             -10.0780
       496        2.0000           -0.3691591             -10.0453
       497        2.0000           -0.3691368             -10.0447
       498        2.0000           -0.3673903              -9.9972
       499        2.0000           -0.3651736              -9.9369
       500        2.0000           -0.3619782              -9.8499
       501        2.0000           -0.3581013              -9.7444
       502        2.0000           -0.3539518              -9.6315
       503        2.0000           -0.3498976              -9.5212
       504        2.0000           -0.3463614              -9.4250
       505        2.0000           -0.3440315              -9.3616 (HOMO)
       506        0.0000           -0.3181875              -8.6583 (LUMO)
       507        0.0000           -0.3152450              -8.5783
       508                         -0.3114011              -8.4737
       509                         -0.3071043              -8.3567
       510                         -0.3027883              -8.2393
       511                         -0.2998369              -8.1590
       512                         -0.2992115              -8.1420
       513                         -0.2992058              -8.1418
       514                         -0.2991920              -8.1414
       515                         -0.2990498              -8.1376
       516                         -0.2988819              -8.1330
       ...                                ...                  ...
       978                          1.6334623              44.4488
      -------------------------------------------------------------
                  HL-Gap            0.0258440 Eh            0.7033 eV
             Fermi-level           -0.3310907 Eh           -9.0094 eV

     #   Z          covCN         q      C6AA      α(0)
     1   6 C        3.016    -0.055    29.338     8.885
     2   6 C        3.009    -0.053    29.300     8.879
     3   6 C        3.196     0.087    25.566     8.243
     4   6 C        2.952     0.012    27.752     8.640
     5   6 C        3.097     0.064    26.451     8.429
     6   6 C        3.026    -0.050    29.208     8.865
     7   6 C        3.034    -0.052    29.250     8.871
     8   6 C        3.073     0.064    26.485     8.438
     9   7 N        2.785    -0.081    22.814     7.094
    10   6 C        2.899    -0.055    29.362     8.885
    11   6 C        3.171     0.087    25.716     8.284
    12   6 C        3.012    -0.054    29.315     8.881
    13   6 C        3.010    -0.054    29.317     8.882
    14   6 C        3.174     0.086    25.706     8.281
    15   7 N        1.870    -0.321    29.170     8.006
    16   6 C        2.899    -0.057    29.406     8.891
    17   6 C        3.074     0.065    26.469     8.435
    18   6 C        3.026    -0.051    29.239     8.870
    19   6 C        3.031    -0.051    29.230     8.868
    20   6 C        3.069     0.066    26.462     8.435
    21   7 N        2.787    -0.081    22.811     7.093
    22   6 C        2.899    -0.055    29.363     8.885
    23   6 C        3.175     0.086    25.722     8.283
    24   7 N        1.870    -0.325    29.275     8.020
    25   1 H        0.926     0.019     2.755     2.595
    26   1 H        0.926     0.021     2.723     2.580
    27   1 H        0.926     0.043     2.406     2.425
    28   1 H        0.926     0.041     2.429     2.437
    29   1 H        0.860     0.214     1.037     1.595
    30   1 H        0.925     0.047     2.357     2.401
    31   1 H        0.926     0.020     2.740     2.589
    32   1 H        0.926     0.020     2.740     2.588
    33   1 H        0.926     0.046     2.367     2.406
    34   1 H        0.926     0.042     2.422     2.434
    35   1 H        0.926     0.042     2.423     2.434
    36   1 H        0.860     0.214     1.035     1.594
    37   1 H        0.925     0.047     2.357     2.401
    38   6 C        3.016    -0.055    29.338     8.885
    39   6 C        3.009    -0.053    29.299     8.879
    40   6 C        3.196     0.087    25.566     8.243
    41   6 C        2.952     0.012    27.752     8.640
    42   6 C        3.097     0.064    26.450     8.429
    43   6 C        3.026    -0.050    29.208     8.865
    44   6 C        3.034    -0.052    29.250     8.871
    45   6 C        3.073     0.064    26.486     8.438
    46   7 N        2.785    -0.081    22.814     7.094
    47   6 C        2.899    -0.055    29.362     8.885
    48   6 C        3.171     0.087    25.717     8.284
    49   6 C        3.012    -0.054    29.315     8.881
    50   6 C        3.010    -0.054    29.317     8.882
    51   6 C        3.174     0.086    25.706     8.281
    52   7 N        1.870    -0.321    29.171     8.006
    53   6 C        2.899    -0.057    29.407     8.891
    54   6 C        3.074     0.065    26.469     8.435
    55   6 C        3.026    -0.051    29.239     8.870
    56   6 C        3.031    -0.051    29.230     8.868
    57   6 C        3.069     0.066    26.461     8.435
    58   7 N        2.787    -0.081    22.811     7.094
    59   6 C        2.899    -0.055    29.363     8.885
    60   6 C        3.175     0.086    25.722     8.283
    61   7 N        1.870    -0.325    29.274     8.020
    62   1 H        0.926     0.019     2.755     2.595
    63   1 H        0.926     0.021     2.723     2.580
    64   1 H        0.926     0.043     2.406     2.425
    65   1 H        0.926     0.041     2.429     2.437
    66   1 H        0.860     0.214     1.037     1.595
    67   1 H        0.925     0.047     2.357     2.401
    68   1 H        0.926     0.020     2.740     2.589
    69   1 H        0.926     0.020     2.740     2.588
    70   1 H        0.926     0.046     2.367     2.406
    71   1 H        0.926     0.042     2.422     2.434
    72   1 H        0.926     0.042     2.423     2.434
    73   1 H        0.860     0.214     1.035     1.594
    74   1 H        0.925     0.047     2.357     2.401
    75   6 C        1.996    -0.022    31.618     9.081
    76   6 C        1.963    -0.011    31.372     9.045
    77   6 C        1.964    -0.010    31.347     9.042
    78   6 C        1.994    -0.023    31.643     9.084
    79   6 C        1.994    -0.022    31.623     9.082
    80   6 C        1.964    -0.011    31.354     9.043
    81   6 C        1.964    -0.010    31.348     9.042
    82   6 C        1.994    -0.022    31.629     9.082
    83   6 C        1.994    -0.022    31.623     9.082
    84   6 C        1.964    -0.011    31.351     9.042
    85   6 C        1.964    -0.010    31.348     9.042
    86   6 C        1.994    -0.022    31.626     9.082
    87   6 C        1.994    -0.022    31.624     9.082
    88   6 C        1.964    -0.011    31.350     9.042
    89   6 C        1.964    -0.011    31.349     9.042
    90   6 C        1.994    -0.022    31.624     9.082
    91   6 C        1.994    -0.022    31.626     9.082
    92   6 C        1.964    -0.010    31.348     9.042
    93   6 C        1.964    -0.011    31.351     9.042
    94   6 C        1.994    -0.022    31.623     9.082
    95   6 C        1.994    -0.022    31.629     9.082
    96   6 C        1.964    -0.010    31.347     9.042
    97   6 C        1.964    -0.011    31.354     9.043
    98   6 C        1.994    -0.022    31.623     9.082
    99   6 C        1.994    -0.023    31.643     9.084
   100   6 C        1.964    -0.010    31.347     9.042
   101   6 C        1.963    -0.011    31.372     9.045
   102   6 C        1.996    -0.022    31.618     9.081
   103   6 C        3.017    -0.055    29.332     8.884
   104   6 C        3.009    -0.053    29.297     8.879
   105   6 C        3.196     0.087    25.567     8.243
   106   6 C        2.952     0.012    27.738     8.638
   107   6 C        3.100     0.064    26.456     8.429
   108   6 C        3.025    -0.050    29.215     8.866
   109   6 C        3.036    -0.052    29.249     8.871
   110   6 C        3.073     0.064    26.492     8.439
   111   7 N        2.786    -0.081    22.816     7.094
   112   6 C        2.899    -0.053    29.308     8.876
   113   6 C        3.174     0.085    25.736     8.286
   114   6 C        3.017    -0.055    29.331     8.884
   115   6 C        3.009    -0.053    29.299     8.879
   116   6 C        3.196     0.087    25.565     8.242
   117   7 N        1.870    -0.324    29.254     8.017
   118   6 C        2.952     0.012    27.750     8.640
   119   6 C        3.100     0.064    26.454     8.429
   120   6 C        3.025    -0.050    29.218     8.866
   121   6 C        3.037    -0.052    29.248     8.871
   122   6 C        3.073     0.064    26.493     8.439
   123   7 N        2.786    -0.081    22.818     7.095
   124   6 C        2.899    -0.053    29.305     8.876
   125   6 C        3.174     0.085    25.735     8.286
   126   7 N        1.870    -0.324    29.250     8.017
   127   1 H        0.926     0.019     2.752     2.594
   128   1 H        0.926     0.021     2.722     2.580
   129   1 H        0.926     0.043     2.408     2.427
   130   1 H        0.926     0.041     2.431     2.438
   131   1 H        0.860     0.214     1.036     1.594
   132   1 H        0.925     0.048     2.347     2.396
   133   1 H        0.926     0.019     2.752     2.594
   134   1 H        0.926     0.021     2.723     2.580
   135   1 H        0.926     0.043     2.410     2.428
   136   1 H        0.926     0.041     2.431     2.438
   137   1 H        0.860     0.214     1.035     1.594
   138   1 H        0.925     0.048     2.347     2.396
   139   6 C        3.017    -0.055    29.331     8.884
   140   6 C        3.009    -0.053    29.298     8.879
   141   6 C        3.197     0.087    25.564     8.242
   142   6 C        2.952     0.012    27.742     8.639
   143   6 C        3.100     0.064    26.454     8.429
   144   6 C        3.025    -0.050    29.216     8.866
   145   6 C        3.037    -0.052    29.248     8.871
   146   6 C        3.073     0.064    26.493     8.439
   147   7 N        2.786    -0.081    22.814     7.094
   148   6 C        2.899    -0.053    29.303     8.876
   149   6 C        3.174     0.085    25.735     8.285
   150   6 C        3.017    -0.054    29.331     8.884
   151   6 C        3.009    -0.053    29.299     8.879
   152   6 C        3.197     0.087    25.562     8.242
   153   7 N        1.870    -0.324    29.250     8.017
   154   6 C        2.952     0.012    27.746     8.640
   155   6 C        3.100     0.064    26.453     8.429
   156   6 C        3.025    -0.050    29.217     8.866
   157   6 C        3.037    -0.052    29.248     8.870
   158   6 C        3.073     0.064    26.493     8.439
   159   7 N        2.786    -0.081    22.815     7.094
   160   6 C        2.899    -0.052    29.303     8.876
   161   6 C        3.174     0.085    25.735     8.286
   162   7 N        1.870    -0.324    29.249     8.017
   163   1 H        0.926     0.019     2.751     2.593
   164   1 H        0.926     0.021     2.722     2.580
   165   1 H        0.926     0.043     2.408     2.427
   166   1 H        0.926     0.041     2.430     2.438
   167   1 H        0.860     0.214     1.035     1.594
   168   1 H        0.925     0.048     2.346     2.395
   169   1 H        0.926     0.019     2.750     2.593
   170   1 H        0.926     0.021     2.722     2.580
   171   1 H        0.926     0.043     2.409     2.427
   172   1 H        0.926     0.041     2.430     2.438
   173   1 H        0.860     0.214     1.035     1.594
   174   1 H        0.925     0.048     2.346     2.395
   175   6 C        3.017    -0.054    29.331     8.884
   176   6 C        3.009    -0.053    29.298     8.879
   177   6 C        3.197     0.087    25.561     8.242
   178   6 C        2.952     0.012    27.743     8.639
   179   6 C        3.100     0.064    26.454     8.429
   180   6 C        3.025    -0.050    29.216     8.866
   181   6 C        3.036    -0.052    29.248     8.871
   182   6 C        3.073     0.064    26.493     8.439
   183   7 N        2.786    -0.081    22.813     7.094
   184   6 C        2.899    -0.052    29.303     8.876
   185   6 C        3.174     0.085    25.734     8.285
   186   6 C        3.017    -0.054    29.331     8.884
   187   6 C        3.009    -0.053    29.298     8.879
   188   6 C        3.197     0.087    25.561     8.242
   189   7 N        1.870    -0.324    29.250     8.017
   190   6 C        2.952     0.012    27.744     8.639
   191   6 C        3.100     0.064    26.453     8.429
   192   6 C        3.025    -0.050    29.217     8.866
   193   6 C        3.036    -0.052    29.248     8.870
   194   6 C        3.073     0.064    26.493     8.439
   195   7 N        2.786    -0.081    22.813     7.094
   196   6 C        2.899    -0.052    29.302     8.876
   197   6 C        3.174     0.085    25.734     8.285
   198   7 N        1.870    -0.324    29.250     8.017
   199   1 H        0.926     0.019     2.750     2.593
   200   1 H        0.926     0.021     2.721     2.580
   201   1 H        0.926     0.043     2.408     2.427
   202   1 H        0.926     0.041     2.429     2.437
   203   1 H        0.860     0.214     1.036     1.594
   204   1 H        0.925     0.048     2.345     2.395
   205   1 H        0.926     0.019     2.750     2.593
   206   1 H        0.926     0.021     2.721     2.580
   207   1 H        0.926     0.043     2.408     2.427
   208   1 H        0.926     0.041     2.429     2.437
   209   1 H        0.860     0.214     1.036     1.594
   210   1 H        0.925     0.048     2.345     2.395
   211   6 C        3.017    -0.054    29.330     8.884
   212   6 C        3.009    -0.053    29.299     8.879
   213   6 C        3.197     0.087    25.562     8.242
   214   6 C        2.952     0.012    27.745     8.639
   215   6 C        3.100     0.064    26.453     8.429
   216   6 C        3.025    -0.050    29.217     8.866
   217   6 C        3.036    -0.052    29.248     8.871
   218   6 C        3.073     0.064    26.493     8.439
   219   7 N        2.786    -0.081    22.814     7.094
   220   6 C        2.899    -0.052    29.302     8.876
   221   6 C        3.174     0.085    25.735     8.285
   222   6 C        3.017    -0.054    29.331     8.884
   223   6 C        3.009    -0.053    29.299     8.879
   224   6 C        3.197     0.087    25.562     8.242
   225   7 N        1.870    -0.324    29.248     8.017
   226   6 C        2.952     0.012    27.743     8.639
   227   6 C        3.100     0.064    26.453     8.429
   228   6 C        3.025    -0.050    29.216     8.866
   229   6 C        3.036    -0.052    29.248     8.871
   230   6 C        3.073     0.064    26.493     8.439
   231   7 N        2.786    -0.081    22.814     7.094
   232   6 C        2.899    -0.053    29.303     8.876
   233   6 C        3.174     0.085    25.735     8.285
   234   7 N        1.870    -0.324    29.250     8.017
   235   1 H        0.926     0.019     2.750     2.593
   236   1 H        0.926     0.021     2.722     2.580
   237   1 H        0.926     0.043     2.408     2.427
   238   1 H        0.926     0.041     2.429     2.437
   239   1 H        0.860     0.214     1.035     1.594
   240   1 H        0.925     0.048     2.345     2.395
   241   1 H        0.926     0.019     2.750     2.593
   242   1 H        0.926     0.021     2.722     2.580
   243   1 H        0.926     0.043     2.408     2.427
   244   1 H        0.926     0.041     2.430     2.437
   245   1 H        0.860     0.214     1.036     1.594
   246   1 H        0.925     0.048     2.345     2.395
   247   6 C        3.017    -0.054    29.331     8.884
   248   6 C        3.009    -0.053    29.298     8.879
   249   6 C        3.196     0.087    25.563     8.242
   250   6 C        2.952     0.012    27.746     8.640
   251   6 C        3.100     0.064    26.453     8.428
   252   6 C        3.025    -0.050    29.217     8.866
   253   6 C        3.036    -0.052    29.248     8.871
   254   6 C        3.073     0.064    26.494     8.439
   255   7 N        2.786    -0.081    22.815     7.094
   256   6 C        2.899    -0.052    29.303     8.876
   257   6 C        3.174     0.085    25.735     8.286
   258   6 C        3.017    -0.055    29.331     8.884
   259   6 C        3.009    -0.053    29.298     8.879
   260   6 C        3.196     0.087    25.564     8.242
   261   7 N        1.870    -0.324    29.249     8.017
   262   6 C        2.952     0.012    27.742     8.639
   263   6 C        3.100     0.064    26.454     8.429
   264   6 C        3.025    -0.050    29.217     8.866
   265   6 C        3.037    -0.052    29.248     8.871
   266   6 C        3.073     0.064    26.493     8.439
   267   7 N        2.786    -0.081    22.814     7.094
   268   6 C        2.899    -0.053    29.303     8.876
   269   6 C        3.174     0.085    25.735     8.286
   270   7 N        1.870    -0.324    29.250     8.017
   271   1 H        0.926     0.019     2.751     2.593
   272   1 H        0.926     0.021     2.722     2.580
   273   1 H        0.926     0.043     2.409     2.427
   274   1 H        0.926     0.041     2.430     2.438
   275   1 H        0.860     0.214     1.035     1.594
   276   1 H        0.925     0.048     2.346     2.395
   277   1 H        0.926     0.019     2.751     2.594
   278   1 H        0.926     0.021     2.721     2.580
   279   1 H        0.926     0.043     2.408     2.427
   280   1 H        0.926     0.041     2.430     2.438
   281   1 H        0.860     0.214     1.035     1.594
   282   1 H        0.925     0.048     2.346     2.395
   283   6 C        3.017    -0.055    29.331     8.884
   284   6 C        3.009    -0.053    29.299     8.879
   285   6 C        3.196     0.087    25.565     8.242
   286   6 C        2.952     0.012    27.750     8.640
   287   6 C        3.100     0.064    26.454     8.429
   288   6 C        3.025    -0.050    29.218     8.866
   289   6 C        3.037    -0.052    29.248     8.871
   290   6 C        3.073     0.064    26.493     8.439
   291   7 N        2.786    -0.081    22.819     7.095
   292   6 C        2.899    -0.053    29.305     8.876
   293   6 C        3.174     0.085    25.735     8.286
   294   6 C        3.017    -0.055    29.332     8.884
   295   6 C        3.009    -0.053    29.297     8.879
   296   6 C        3.196     0.087    25.567     8.243
   297   7 N        1.870    -0.324    29.250     8.017
   298   6 C        2.952     0.012    27.739     8.638
   299   6 C        3.100     0.064    26.456     8.429
   300   6 C        3.025    -0.050    29.215     8.866
   301   6 C        3.037    -0.052    29.249     8.871
   302   6 C        3.073     0.064    26.492     8.439
   303   7 N        2.786    -0.081    22.816     7.094
   304   6 C        2.899    -0.053    29.308     8.876
   305   6 C        3.174     0.085    25.737     8.286
   306   7 N        1.870    -0.324    29.253     8.017
   307   1 H        0.926     0.019     2.752     2.594
   308   1 H        0.926     0.021     2.723     2.581
   309   1 H        0.926     0.043     2.410     2.428
   310   1 H        0.926     0.041     2.431     2.438
   311   1 H        0.860     0.214     1.035     1.594
   312   1 H        0.925     0.048     2.347     2.396
   313   1 H        0.926     0.019     2.752     2.594
   314   1 H        0.926     0.021     2.722     2.580
   315   1 H        0.926     0.043     2.408     2.427
   316   1 H        0.926     0.041     2.431     2.438
   317   1 H        0.860     0.214     1.035     1.594
   318   1 H        0.925     0.048     2.347     2.396

 Mol. C6AA /au·bohr⁶  :    1716358.607037
 Mol. C8AA /au·bohr⁸  :   44310401.354696
 Mol. α(0) /au        :       2107.973017


Wiberg/Mayer (AO) data.
largest (>0.10) Wiberg bond orders for each atom

 ---------------------------------------------------------------------------
     #   Z sym  total        # sym  WBO       # sym  WBO       # sym  WBO
 ---------------------------------------------------------------------------
     1   6 C    3.960 --     2 C    1.716    23 C    1.115    25 H    0.973
     2   6 C    3.961 --     1 C    1.716     3 C    1.122    26 H    0.972
     3   6 C    3.916 --    24 N    1.362     4 C    1.243     2 C    1.122
     4   6 C    3.939 --     5 C    1.248     3 C    1.243    75 C    1.192
     5   6 C    3.902 --     4 C    1.248     6 C    1.237     9 N    1.226
     6   6 C    3.955 --     7 C    1.592     5 C    1.237    27 H    0.972
     7   6 C    3.948 --     6 C    1.592     8 C    1.224    28 H    0.973
     8   6 C    3.918 --    10 C    1.344     7 C    1.224     9 N    1.202
     9   7 N    3.590 --     5 C    1.226     8 C    1.202    29 H    0.900
    10   6 C    3.920 --    11 C    1.357     8 C    1.344    30 H    0.964
    11   6 C    3.939 --    10 C    1.357    15 N    1.324    12 C    1.107
    12   6 C    3.963 --    13 C    1.731    11 C    1.107    31 H    0.973
    13   6 C    3.962 --    12 C    1.731    14 C    1.109    32 H    0.973
    14   6 C    3.938 --    16 C    1.354    15 N    1.325    13 C    1.109
    15   7 N    3.001 --    14 C    1.325    11 C    1.324
    16   6 C    3.922 --    14 C    1.354    17 C    1.346    33 H    0.965
    17   6 C    3.921 --    16 C    1.346    18 C    1.216    21 N    1.210
    18   6 C    3.949 --    19 C    1.608    17 C    1.216    34 H    0.973
    19   6 C    3.953 --    18 C    1.608    20 C    1.215    35 H    0.973
    20   6 C    3.916 --    22 C    1.342    19 C    1.215    21 N    1.211
    21   7 N    3.586 --    20 C    1.211    17 C    1.210    36 H    0.900
    22   6 C    3.937 --    23 C    1.367    20 C    1.342    37 H    0.964
    23   6 C    3.924 --    22 C    1.367    24 N    1.298     1 C    1.115
    24   7 N    3.009 --     3 C    1.362    23 C    1.298
    25   1 H    0.999 --     1 C    0.973
    26   1 H    0.999 --     2 C    0.972
    27   1 H    0.998 --     6 C    0.972
    28   1 H    0.998 --     7 C    0.973
    29   1 H    0.954 --     9 N    0.900
    30   1 H    0.997 --    10 C    0.964
    31   1 H    0.999 --    12 C    0.973
    32   1 H    0.999 --    13 C    0.973
    33   1 H    0.997 --    16 C    0.965
    34   1 H    0.998 --    18 C    0.973
    35   1 H    0.998 --    19 C    0.973
    36   1 H    0.954 --    21 N    0.900
    37   1 H    0.997 --    22 C    0.964
    38   6 C    3.960 --    39 C    1.716    60 C    1.115    62 H    0.973
    39   6 C    3.961 --    38 C    1.716    40 C    1.122    63 H    0.972
    40   6 C    3.916 --    61 N    1.363    41 C    1.243    39 C    1.122
    41   6 C    3.939 --    42 C    1.248    40 C    1.243   102 C    1.192
    42   6 C    3.902 --    41 C    1.248    43 C    1.237    46 N    1.226
    43   6 C    3.955 --    44 C    1.592    42 C    1.237    64 H    0.972
    44   6 C    3.948 --    43 C    1.592    45 C    1.224    65 H    0.973
    45   6 C    3.918 --    47 C    1.344    44 C    1.224    46 N    1.202
    46   7 N    3.590 --    42 C    1.226    45 C    1.202    66 H    0.900
    47   6 C    3.920 --    48 C    1.357    45 C    1.344    67 H    0.964
    48   6 C    3.939 --    47 C    1.357    52 N    1.324    49 C    1.107
    49   6 C    3.963 --    50 C    1.731    48 C    1.107    68 H    0.973
    50   6 C    3.962 --    49 C    1.731    51 C    1.109    69 H    0.973
    51   6 C    3.938 --    53 C    1.354    52 N    1.325    50 C    1.109
    52   7 N    3.001 --    51 C    1.325    48 C    1.324
    53   6 C    3.922 --    51 C    1.354    54 C    1.346    70 H    0.965
    54   6 C    3.921 --    53 C    1.346    55 C    1.216    58 N    1.210
    55   6 C    3.949 --    56 C    1.608    54 C    1.216    71 H    0.973
    56   6 C    3.953 --    55 C    1.608    57 C    1.215    72 H    0.973
    57   6 C    3.916 --    59 C    1.342    56 C    1.215    58 N    1.211
    58   7 N    3.586 --    57 C    1.211    54 C    1.210    73 H    0.900
    59   6 C    3.937 --    60 C    1.367    57 C    1.342    74 H    0.964
    60   6 C    3.924 --    59 C    1.367    61 N    1.298    38 C    1.115
    61   7 N    3.009 --    40 C    1.363    60 C    1.298
    62   1 H    0.999 --    38 C    0.973
    63   1 H    0.999 --    39 C    0.972
    64   1 H    0.998 --    43 C    0.972
    65   1 H    0.998 --    44 C    0.973
    66   1 H    0.954 --    46 N    0.900
    67   1 H    0.997 --    47 C    0.964
    68   1 H    0.999 --    49 C    0.973
    69   1 H    0.999 --    50 C    0.973
    70   1 H    0.997 --    53 C    0.965
    71   1 H    0.998 --    55 C    0.973
    72   1 H    0.998 --    56 C    0.973
    73   1 H    0.954 --    58 N    0.900
    74   1 H    0.997 --    59 C    0.964
    75   6 C    3.916 --    76 C    2.461     4 C    1.192    78 C    0.202
    76   6 C    3.925 --    75 C    2.461    77 C    1.311
    77   6 C    3.921 --    78 C    2.458    76 C    1.311
    78   6 C    3.918 --    77 C    2.458   106 C    1.196    75 C    0.202
    79   6 C    3.916 --    80 C    2.454   118 C    1.198    82 C    0.201
    80   6 C    3.921 --    79 C    2.454    81 C    1.315
    81   6 C    3.920 --    82 C    2.454    80 C    1.315
    82   6 C    3.916 --    81 C    2.454   142 C    1.198    79 C    0.201
    83   6 C    3.916 --    84 C    2.454   154 C    1.199    86 C    0.201
    84   6 C    3.920 --    83 C    2.454    85 C    1.315
    85   6 C    3.920 --    86 C    2.454    84 C    1.315
    86   6 C    3.916 --    85 C    2.454   178 C    1.198    83 C    0.201
    87   6 C    3.916 --    88 C    2.454   190 C    1.198    90 C    0.201
    88   6 C    3.920 --    87 C    2.454    89 C    1.315
    89   6 C    3.920 --    90 C    2.454    88 C    1.315
    90   6 C    3.916 --    89 C    2.454   214 C    1.198    87 C    0.201
    91   6 C    3.916 --    92 C    2.454   226 C    1.199    94 C    0.201
    92   6 C    3.920 --    91 C    2.454    93 C    1.315
    93   6 C    3.920 --    94 C    2.454    92 C    1.315
    94   6 C    3.916 --    93 C    2.454   250 C    1.198    91 C    0.201
    95   6 C    3.916 --    96 C    2.454   262 C    1.198    98 C    0.201
    96   6 C    3.920 --    95 C    2.454    97 C    1.315
    97   6 C    3.921 --    98 C    2.454    96 C    1.315
    98   6 C    3.916 --    97 C    2.454   286 C    1.198    95 C    0.201
    99   6 C    3.918 --   100 C    2.458   298 C    1.196   102 C    0.202
   100   6 C    3.921 --    99 C    2.458   101 C    1.311
   101   6 C    3.925 --   102 C    2.460   100 C    1.311
   102   6 C    3.916 --   101 C    2.460    41 C    1.192    99 C    0.202
   103   6 C    3.961 --   104 C    1.715   125 C    1.115   127 H    0.973
   104   6 C    3.960 --   103 C    1.715   105 C    1.124   128 H    0.972
   105   6 C    3.917 --   126 N    1.363   106 C    1.241   104 C    1.124
   106   6 C    3.925 --   107 C    1.243   105 C    1.241    78 C    1.196
   107   6 C    3.903 --   106 C    1.243   108 C    1.242   111 N    1.227
   108   6 C    3.952 --   109 C    1.587   107 C    1.242   129 H    0.972
   109   6 C    3.949 --   108 C    1.587   110 C    1.228   130 H    0.973
   110   6 C    3.914 --   112 C    1.335   109 C    1.228   111 N    1.203
   111   7 N    3.586 --   107 C    1.227   110 C    1.203   131 H    0.898
   112   6 C    3.922 --   113 C    1.373   110 C    1.335   132 H    0.963
   113   6 C    3.926 --   112 C    1.373   117 N    1.294   114 C    1.115
   114   6 C    3.961 --   115 C    1.716   113 C    1.115   133 H    0.973
   115   6 C    3.960 --   114 C    1.716   116 C    1.123   134 H    0.972
   116   6 C    3.917 --   117 N    1.364   118 C    1.240   115 C    1.123
   117   7 N    2.999 --   116 C    1.364   113 C    1.294
   118   6 C    3.925 --   119 C    1.243   116 C    1.240    79 C    1.198
   119   6 C    3.903 --   118 C    1.243   120 C    1.242   123 N    1.227
   120   6 C    3.952 --   121 C    1.587   119 C    1.242   135 H    0.972
   121   6 C    3.948 --   120 C    1.587   122 C    1.228   136 H    0.973
   122   6 C    3.914 --   124 C    1.336   121 C    1.228   123 N    1.203
   123   7 N    3.585 --   119 C    1.227   122 C    1.203   137 H    0.898
   124   6 C    3.922 --   125 C    1.371   122 C    1.336   138 H    0.963
   125   6 C    3.926 --   124 C    1.371   126 N    1.295   103 C    1.115
   126   7 N    2.999 --   105 C    1.363   125 C    1.295
   127   1 H    0.999 --   103 C    0.973
   128   1 H    0.999 --   104 C    0.972
   129   1 H    0.998 --   108 C    0.972
   130   1 H    0.998 --   109 C    0.973
   131   1 H    0.954 --   111 N    0.898
   132   1 H    0.997 --   112 C    0.963
   133   1 H    0.999 --   114 C    0.973
   134   1 H    0.999 --   115 C    0.972
   135   1 H    0.998 --   120 C    0.972
   136   1 H    0.998 --   121 C    0.973
   137   1 H    0.954 --   123 N    0.898
   138   1 H    0.997 --   124 C    0.963
   139   6 C    3.961 --   140 C    1.715   161 C    1.115   163 H    0.973
   140   6 C    3.960 --   139 C    1.715   141 C    1.123   164 H    0.972
   141   6 C    3.917 --   162 N    1.364   142 C    1.240   140 C    1.123
   142   6 C    3.924 --   143 C    1.242   141 C    1.240    82 C    1.198
   143   6 C    3.903 --   142 C    1.242   144 C    1.242   147 N    1.227
   144   6 C    3.952 --   145 C    1.586   143 C    1.242   165 H    0.972
   145   6 C    3.948 --   144 C    1.586   146 C    1.229   166 H    0.973
   146   6 C    3.914 --   148 C    1.335   145 C    1.229   147 N    1.203
   147   7 N    3.585 --   143 C    1.227   146 C    1.203   167 H    0.898
   148   6 C    3.922 --   149 C    1.373   146 C    1.335   168 H    0.963
   149   6 C    3.926 --   148 C    1.373   153 N    1.293   150 C    1.115
   150   6 C    3.961 --   151 C    1.715   149 C    1.115   169 H    0.973
   151   6 C    3.960 --   150 C    1.715   152 C    1.123   170 H    0.972
   152   6 C    3.917 --   153 N    1.365   154 C    1.239   151 C    1.123
   153   7 N    2.999 --   152 C    1.365   149 C    1.293
   154   6 C    3.924 --   155 C    1.243   152 C    1.239    83 C    1.199
   155   6 C    3.903 --   154 C    1.243   156 C    1.242   159 N    1.227
   156   6 C    3.952 --   157 C    1.587   155 C    1.242   171 H    0.972
   157   6 C    3.948 --   156 C    1.587   158 C    1.228   172 H    0.973
   158   6 C    3.914 --   160 C    1.335   157 C    1.228   159 N    1.203
   159   7 N    3.585 --   155 C    1.227   158 C    1.203   173 H    0.898
   160   6 C    3.922 --   161 C    1.372   158 C    1.335   174 H    0.963
   161   6 C    3.926 --   160 C    1.372   162 N    1.294   139 C    1.115
   162   7 N    2.999 --   141 C    1.364   161 C    1.294
   163   1 H    0.999 --   139 C    0.973
   164   1 H    0.999 --   140 C    0.972
   165   1 H    0.998 --   144 C    0.972
   166   1 H    0.998 --   145 C    0.973
   167   1 H    0.954 --   147 N    0.898
   168   1 H    0.997 --   148 C    0.963
   169   1 H    0.999 --   150 C    0.973
   170   1 H    0.999 --   151 C    0.972
   171   1 H    0.998 --   156 C    0.972
   172   1 H    0.998 --   157 C    0.973
   173   1 H    0.954 --   159 N    0.898
   174   1 H    0.997 --   160 C    0.963
   175   6 C    3.961 --   176 C    1.715   197 C    1.115   199 H    0.973
   176   6 C    3.960 --   175 C    1.715   177 C    1.123   200 H    0.972
   177   6 C    3.917 --   198 N    1.364   178 C    1.240   176 C    1.123
   178   6 C    3.924 --   179 C    1.242   177 C    1.240    86 C    1.198
   179   6 C    3.903 --   178 C    1.242   180 C    1.242   183 N    1.227
   180   6 C    3.952 --   181 C    1.586   179 C    1.242   201 H    0.972
   181   6 C    3.948 --   180 C    1.586   182 C    1.229   202 H    0.973
   182   6 C    3.914 --   184 C    1.335   181 C    1.229   183 N    1.203
   183   7 N    3.585 --   179 C    1.227   182 C    1.203   203 H    0.898
   184   6 C    3.922 --   185 C    1.373   182 C    1.335   204 H    0.963
   185   6 C    3.926 --   184 C    1.373   189 N    1.294   186 C    1.115
   186   6 C    3.961 --   187 C    1.716   185 C    1.115   205 H    0.973
   187   6 C    3.960 --   186 C    1.716   188 C    1.123   206 H    0.972
   188   6 C    3.917 --   189 N    1.364   190 C    1.240   187 C    1.123
   189   7 N    2.998 --   188 C    1.364   185 C    1.294
   190   6 C    3.924 --   191 C    1.242   188 C    1.240    87 C    1.198
   191   6 C    3.903 --   190 C    1.242   192 C    1.242   195 N    1.227
   192   6 C    3.952 --   193 C    1.587   191 C    1.242   207 H    0.972
   193   6 C    3.948 --   192 C    1.587   194 C    1.229   208 H    0.973
   194   6 C    3.914 --   196 C    1.335   193 C    1.229   195 N    1.203
   195   7 N    3.585 --   191 C    1.227   194 C    1.203   209 H    0.898
   196   6 C    3.922 --   197 C    1.372   194 C    1.335   210 H    0.963
   197   6 C    3.926 --   196 C    1.372   198 N    1.294   175 C    1.115
   198   7 N    2.999 --   177 C    1.364   197 C    1.294
   199   1 H    0.999 --   175 C    0.973
   200   1 H    0.999 --   176 C    0.972
   201   1 H    0.998 --   180 C    0.972
   202   1 H    0.998 --   181 C    0.973
   203   1 H    0.954 --   183 N    0.898
   204   1 H    0.997 --   184 C    0.963
   205   1 H    0.999 --   186 C    0.973
   206   1 H    0.999 --   187 C    0.972
   207   1 H    0.998 --   192 C    0.972
   208   1 H    0.998 --   193 C    0.973
   209   1 H    0.954 --   195 N    0.898
   210   1 H    0.997 --   196 C    0.963
   211   6 C    3.961 --   212 C    1.716   233 C    1.115   235 H    0.973
   212   6 C    3.960 --   211 C    1.716   213 C    1.123   236 H    0.972
   213   6 C    3.917 --   234 N    1.364   214 C    1.239   212 C    1.123
   214   6 C    3.924 --   215 C    1.242   213 C    1.239    90 C    1.198
   215   6 C    3.903 --   214 C    1.242   216 C    1.242   219 N    1.227
   216   6 C    3.952 --   217 C    1.587   215 C    1.242   237 H    0.972
   217   6 C    3.948 --   216 C    1.587   218 C    1.229   238 H    0.973
   218   6 C    3.914 --   220 C    1.335   217 C    1.229   219 N    1.203
   219   7 N    3.585 --   215 C    1.227   218 C    1.203   239 H    0.898
   220   6 C    3.922 --   221 C    1.372   218 C    1.335   240 H    0.963
   221   6 C    3.926 --   220 C    1.372   225 N    1.294   222 C    1.115
   222   6 C    3.961 --   223 C    1.715   221 C    1.115   241 H    0.973
   223   6 C    3.960 --   222 C    1.715   224 C    1.123   242 H    0.972
   224   6 C    3.917 --   225 N    1.364   226 C    1.239   223 C    1.123
   225   7 N    2.999 --   224 C    1.364   221 C    1.294
   226   6 C    3.924 --   227 C    1.243   224 C    1.239    91 C    1.199
   227   6 C    3.903 --   226 C    1.243   228 C    1.242   231 N    1.227
   228   6 C    3.952 --   229 C    1.586   227 C    1.242   243 H    0.972
   229   6 C    3.948 --   228 C    1.586   230 C    1.229   244 H    0.973
   230   6 C    3.914 --   232 C    1.335   229 C    1.229   231 N    1.203
   231   7 N    3.585 --   227 C    1.227   230 C    1.203   245 H    0.898
   232   6 C    3.922 --   233 C    1.373   230 C    1.335   246 H    0.963
   233   6 C    3.926 --   232 C    1.373   234 N    1.294   211 C    1.115
   234   7 N    2.999 --   213 C    1.364   233 C    1.294
   235   1 H    0.999 --   211 C    0.973
   236   1 H    0.999 --   212 C    0.972
   237   1 H    0.998 --   216 C    0.972
   238   1 H    0.998 --   217 C    0.973
   239   1 H    0.954 --   219 N    0.898
   240   1 H    0.997 --   220 C    0.963
   241   1 H    0.999 --   222 C    0.973
   242   1 H    0.999 --   223 C    0.972
   243   1 H    0.998 --   228 C    0.972
   244   1 H    0.998 --   229 C    0.973
   245   1 H    0.954 --   231 N    0.898
   246   1 H    0.997 --   232 C    0.963
   247   6 C    3.961 --   248 C    1.716   269 C    1.115   271 H    0.973
   248   6 C    3.960 --   247 C    1.716   249 C    1.123   272 H    0.972
   249   6 C    3.917 --   270 N    1.364   250 C    1.240   248 C    1.123
   250   6 C    3.924 --   251 C    1.242   249 C    1.240    94 C    1.198
   251   6 C    3.903 --   250 C    1.242   252 C    1.242   255 N    1.227
   252   6 C    3.952 --   253 C    1.587   251 C    1.242   273 H    0.972
   253   6 C    3.948 --   252 C    1.587   254 C    1.228   274 H    0.973
   254   6 C    3.914 --   256 C    1.335   253 C    1.228   255 N    1.203
   255   7 N    3.585 --   251 C    1.227   254 C    1.203   275 H    0.898
   256   6 C    3.922 --   257 C    1.372   254 C    1.335   276 H    0.963
   257   6 C    3.926 --   256 C    1.372   261 N    1.294   258 C    1.115
   258   6 C    3.960 --   259 C    1.715   257 C    1.115   277 H    0.973
   259   6 C    3.960 --   258 C    1.715   260 C    1.124   278 H    0.972
   260   6 C    3.917 --   261 N    1.364   262 C    1.240   259 C    1.124
   261   7 N    2.999 --   260 C    1.364   257 C    1.294
   262   6 C    3.924 --   263 C    1.242   260 C    1.240    95 C    1.198
   263   6 C    3.903 --   262 C    1.242   264 C    1.242   267 N    1.227
   264   6 C    3.952 --   265 C    1.586   263 C    1.242   279 H    0.972
   265   6 C    3.948 --   264 C    1.586   266 C    1.229   280 H    0.973
   266   6 C    3.914 --   268 C    1.335   265 C    1.229   267 N    1.203
   267   7 N    3.585 --   263 C    1.227   266 C    1.203   281 H    0.898
   268   6 C    3.922 --   269 C    1.373   266 C    1.335   282 H    0.963
   269   6 C    3.926 --   268 C    1.373   270 N    1.294   247 C    1.115
   270   7 N    2.999 --   249 C    1.364   269 C    1.294
   271   1 H    0.999 --   247 C    0.973
   272   1 H    0.999 --   248 C    0.972
   273   1 H    0.998 --   252 C    0.972
   274   1 H    0.998 --   253 C    0.973
   275   1 H    0.954 --   255 N    0.898
   276   1 H    0.997 --   256 C    0.963
   277   1 H    0.999 --   258 C    0.973
   278   1 H    0.999 --   259 C    0.972
   279   1 H    0.998 --   264 C    0.972
   280   1 H    0.998 --   265 C    0.973
   281   1 H    0.954 --   267 N    0.898
   282   1 H    0.997 --   268 C    0.963
   283   6 C    3.960 --   284 C    1.715   305 C    1.115   307 H    0.973
   284   6 C    3.960 --   283 C    1.715   285 C    1.123   308 H    0.972
   285   6 C    3.917 --   306 N    1.364   286 C    1.240   284 C    1.123
   286   6 C    3.925 --   287 C    1.243   285 C    1.240    98 C    1.198
   287   6 C    3.903 --   286 C    1.243   288 C    1.242   291 N    1.227
   288   6 C    3.952 --   289 C    1.587   287 C    1.242   309 H    0.972
   289   6 C    3.948 --   288 C    1.587   290 C    1.228   310 H    0.973
   290   6 C    3.914 --   292 C    1.336   289 C    1.228   291 N    1.203
   291   7 N    3.585 --   287 C    1.227   290 C    1.203   311 H    0.898
   292   6 C    3.922 --   293 C    1.371   290 C    1.336   312 H    0.963
   293   6 C    3.926 --   292 C    1.371   297 N    1.295   294 C    1.115
   294   6 C    3.961 --   295 C    1.715   293 C    1.115   313 H    0.973
   295   6 C    3.960 --   294 C    1.715   296 C    1.124   314 H    0.972
   296   6 C    3.917 --   297 N    1.363   298 C    1.241   295 C    1.124
   297   7 N    2.999 --   296 C    1.363   293 C    1.295
   298   6 C    3.925 --   299 C    1.243   296 C    1.241    99 C    1.196
   299   6 C    3.903 --   298 C    1.243   300 C    1.242   303 N    1.227
   300   6 C    3.952 --   301 C    1.587   299 C    1.242   315 H    0.972
   301   6 C    3.949 --   300 C    1.587   302 C    1.228   316 H    0.973
   302   6 C    3.914 --   304 C    1.335   301 C    1.228   303 N    1.203
   303   7 N    3.586 --   299 C    1.227   302 C    1.203   317 H    0.898
   304   6 C    3.922 --   305 C    1.373   302 C    1.335   318 H    0.963
   305   6 C    3.926 --   304 C    1.373   306 N    1.294   283 C    1.115
   306   7 N    2.999 --   285 C    1.364   305 C    1.294
   307   1 H    0.999 --   283 C    0.973
   308   1 H    0.999 --   284 C    0.972
   309   1 H    0.998 --   288 C    0.972
   310   1 H    0.998 --   289 C    0.973
   311   1 H    0.954 --   291 N    0.898
   312   1 H    0.997 --   292 C    0.963
   313   1 H    0.999 --   294 C    0.973
   314   1 H    0.999 --   295 C    0.972
   315   1 H    0.998 --   300 C    0.972
   316   1 H    0.998 --   301 C    0.973
   317   1 H    0.954 --   303 N    0.898
   318   1 H    0.997 --   304 C    0.963
 ---------------------------------------------------------------------------

Topologies differ in total number of bonds
Writing topology from bond orders to xtbtopo.mol

molecular dipole:
                 x           y           z       tot (Debye)
 q only:       -0.001      -0.001      -0.008
   full:       -0.001      -0.001      -0.016       0.040
molecular quadrupole (traceless):
                xx          xy          yy          xz          yz          zz
 q only:      144.937     -86.718     -38.720       4.225      -6.092    -106.217
  q+dip:      251.781     -44.865      -9.149      -1.939     -21.157    -242.632
   full:      190.099     -43.133     -26.981      -2.042     -12.339    -163.118


           -------------------------------------------------
          | TOTAL ENERGY             -545.311390262925 Eh   |
          | GRADIENT NORM               0.000671903017 Eh/α |
          | HOMO-LUMO GAP               0.703251168330 eV   |
           -------------------------------------------------

------------------------------------------------------------------------
 * finished run on 2021/11/21 at 19:23:20.508     
------------------------------------------------------------------------
 total:
 * wall-time:     0 d,  0 h,  0 min,  5.368 sec
 *  cpu-time:     0 d,  0 h,  0 min,  5.368 sec
 * ratio c/w:     1.000 speedup
 SCF:
 * wall-time:     0 d,  0 h,  0 min,  5.184 sec
 *  cpu-time:     0 d,  0 h,  0 min,  5.184 sec
 * ratio c/w:     1.000 speedup

