 Entering Gaussian System
 *********************************************
 Gaussian 98:
 frequency output generated by the xtb code
 *********************************************
                         Standard orientation:
 --------------------------------------------------------------------
  Center     Atomic     Atomic              Coordinates (Angstroms)
  Number     Number      Type              X           Y           Z
 --------------------------------------------------------------------
    1          6             0      -12.534794    2.229795    2.798696
    2          6             0      -11.834780    1.437222    1.964034
    3          6             0      -12.796964    0.914422    1.010134
    4          6             0      -12.446193    0.042448   -0.039576
    5          6             0      -13.353676   -0.473367   -0.978233
    6          6             0      -13.069792   -1.352257   -2.057836
    7          6             0      -14.244811   -1.594892   -2.708798
    8          6             0      -15.271579   -0.869266   -2.041147
    9          7             0      -14.684034   -0.209351   -1.004893
   10          6             0      -16.616133   -0.838798   -2.380282
   11          6             0      -17.630702   -0.137469   -1.743389
   12          6             0      -19.015885   -0.181127   -2.189816
   13          6             0      -19.707378    0.608336   -1.347372
   14          6             0      -18.739667    1.127461   -0.393184
   15          7             0      -17.502759    0.658432   -0.661752
   16          6             0      -19.077053    1.990565    0.641732
   17          6             0      -18.192917    2.513982    1.572390
   18          6             0      -18.475711    3.402432    2.649210
   19          6             0      -17.303115    3.649500    3.299490
   20          6             0      -16.273648    2.918486    2.637608
   21          7             0      -16.858802    2.253152    1.607276
   22          6             0      -14.929231    2.887006    2.976254
   23          6             0      -13.914854    2.181529    2.345863
   24          7             0      -14.033134    1.376116    1.263469
   25          1             0      -12.187158    2.799627    3.638879
   26          1             0      -10.786257    1.210257    1.963699
   27          1             0      -12.096582   -1.737857   -2.292196
   28          1             0      -14.396815   -2.215646   -3.570240
   29          1             0      -15.154180    0.395063   -0.340978
   30          1             0      -16.903792   -1.429404   -3.239119
   31          1             0      -19.368089   -0.746416   -3.031421
   32          1             0      -20.755658    0.838244   -1.340049
   33          1             0      -20.114593    2.279338    0.728045
   34          1             0      -19.447913    3.791222    2.882360
   35          1             0      -17.150828    4.275962    4.156997
   36          1             0      -16.391937    1.644610    0.945677
   37          1             0      -14.638659    3.481737    3.831369
   38          6             0       14.039829   -2.818568    1.393347
   39          6             0       12.919889   -2.204970    0.963934
   40          6             0       13.323513   -0.865488    0.575050
   41          6             0       12.425942    0.091554    0.061723
   42          6             0       12.791620    1.388391   -0.335647
   43          6             0       11.943508    2.396920   -0.866570
   44          6             0       12.714723    3.497991   -1.104059
   45          6             0       14.049860    3.186209   -0.721773
   46          7             0       14.045021    1.902242   -0.267467
   47          6             0       15.147551    4.031264   -0.791158
   48          6             0       16.453702    3.749150   -0.415755
   49          6             0       17.530855    4.722508   -0.525770
   50          6             0       18.640248    4.107898   -0.075560
   51          6             0       18.232214    2.764447    0.305351
   52          7             0       16.912227    2.584754    0.088037
   53          6             0       19.109721    1.817256    0.817856
   54          6             0       18.770359    0.526296    1.192234
   55          6             0       19.621805   -0.487456    1.717650
   56          6             0       18.857430   -1.594360    1.940039
   57          6             0       17.519327   -1.285818    1.557386
   58          7             0       17.519311   -0.001031    1.114573
   59          6             0       16.421450   -2.130580    1.625226
   60          6             0       15.112505   -1.846527    1.264942
   61          7             0       14.640228   -0.679393    0.765551
   62          1             0       14.162415   -3.818016    1.764243
   63          1             0       11.918566   -2.585131    0.901530
   64          1             0       10.890812    2.282541   -1.037917
   65          1             0       12.398397    4.441478   -1.504400
   66          1             0       14.848290    1.390389    0.078775
   67          1             0       14.960649    5.023092   -1.179128
   68          1             0       17.414040    5.722211   -0.898401
   69          1             0       19.640618    4.488096    0.005103
   70          1             0       20.143257    2.110201    0.933178
   71          1             0       20.673263   -0.371542    1.895661
   72          1             0       19.176402   -2.540737    2.331925
   73          1             0       16.717282    0.513678    0.771374
   74          1             0       16.607974   -3.125106    2.006667
   75          6             0      -11.103545   -0.325221   -0.161748
   76          6             0       -9.924821   -0.626534   -0.250915
   77          6             0       -8.624615   -0.922550   -0.344550
   78          6             0       -7.427399   -1.166765   -0.420460
   79          6             0       -6.111044   -1.384045   -0.500396
   80          6             0       -4.904031   -1.550426   -0.564958
   81          6             0        4.884655   -1.520318   -0.433142
   82          6             0        6.090090   -1.339032   -0.371082
   83          6             0        7.403921   -1.109047   -0.298113
   84          6             0        8.600206   -0.857707   -0.224495
   85          6             0        9.899203   -0.557392   -0.139581
   86          6             0       11.079478   -0.259905   -0.054798
   87          6             0       -2.562049   -3.581180    2.250762
   88          6             0       -3.529105   -3.029018    1.492086
   89          6             0       -2.845143   -2.357677    0.402419
   90          6             0       -3.514858   -1.672583   -0.630042
   91          6             0       -2.862291   -1.082393   -1.725539
   92          6             0       -3.452793   -0.430637   -2.839806
   93          6             0       -2.438229   -0.018298   -3.655767
   94          6             0       -1.208088   -0.399784   -3.050821
   95          7             0       -1.516904   -1.045712   -1.892951
   96          6             0        0.063160   -0.127067   -3.536741
   97          6             0        1.284984   -0.414541   -2.949809
   98          6             0        2.546974    0.000514   -3.538635
   99          6             0        3.511959   -0.401043   -2.688307
  100          6             0        2.827841   -1.071454   -1.597958
  101          7             0        1.497013   -1.064407   -1.780025
  102          6             0        3.498715   -1.661519   -0.507380
  103          6             0        2.848727   -2.371945    0.515478
  104          6             0        3.438640   -3.048730    1.614882
  105          6             0        2.425064   -3.599321    2.346298
  106          6             0        1.195539   -3.260667    1.714649
  107          7             0        1.504529   -2.526507    0.610574
  108          6             0       -0.075383   -3.589703    2.165668
  109          6             0       -1.298907   -3.225633    1.625543
  110          7             0       -1.512165   -2.491854    0.507329
  111          1             0       -2.657076   -4.163798    3.146875
  112          1             0       -4.593961   -3.059146    1.620074
  113          1             0       -4.507743   -0.304557   -2.986871
  114          1             0       -2.523630    0.506680   -4.587220
  115          1             0       -0.865995   -1.446204   -1.226259
  116          1             0        0.101579    0.402080   -4.479305
  117          1             0        2.642701    0.529515   -4.467299
  118          1             0        4.575438   -0.281285   -2.762707
  119          1             0        4.492682   -3.102578    1.806471
  120          1             0        2.510639   -4.181170    3.243342
  121          1             0        0.854354   -2.131774   -0.060245
  122          1             0       -0.113047   -4.182590    3.069590
 --------------------------------------------------------------------
     1 basis functions        1 primitive gaussians
     1 alpha electrons        1 beta electrons

 Harmonic frequencies (cm**-1), IR intensities (km*mol⁻¹),
 Raman scattering activities (A**4/amu), Raman depolarization ratios,
 reduced masses (AMU), force constants (mDyne/A) and normal coordinates:
                      1                      2                      3
                        a                      a                      a 
 Frequencies --    -3.1136                -0.9416                 2.7818
 Red. masses --    11.2492                11.7821                11.5033
 Frc consts  --     0.0000                 0.0000                 0.0000
 IR Inten    --     1.8396                19.2717                 2.4973
 Raman Activ --     0.0000                 0.0000                 0.0000
 Depolar     --     0.0000                 0.0000                 0.0000
 Atom AN      X      Y      Z        X      Y      Z        X      Y      Z
   1   6    -0.04  -0.17   0.12     0.08  -0.00   0.01     0.03   0.00   0.00
   2   6    -0.03  -0.12   0.08     0.06  -0.01   0.01     0.02   0.01  -0.01
   3   6    -0.01  -0.06   0.04     0.05   0.01   0.01     0.01   0.00   0.01
   4   6    -0.00   0.01  -0.01     0.03   0.01   0.00     0.00   0.01   0.00
   5   6     0.01   0.07  -0.06     0.01   0.03   0.01    -0.01   0.00   0.01
   6   6     0.03   0.14  -0.11    -0.01   0.03   0.00    -0.02   0.00   0.01
   7   6     0.04   0.18  -0.15    -0.02   0.05   0.01    -0.03  -0.00   0.03
   8   6     0.03   0.15  -0.12     0.00   0.07   0.02    -0.02  -0.01   0.04
   9   7     0.02   0.09  -0.07     0.02   0.06   0.02    -0.01  -0.01   0.04
  10   6     0.04   0.17  -0.14     0.00   0.09   0.02    -0.03  -0.02   0.06
  11   6     0.03   0.14  -0.11     0.02   0.11   0.03    -0.02  -0.03   0.08
  12   6     0.03   0.17  -0.13     0.01   0.14   0.03    -0.03  -0.04   0.10
  13   6     0.02   0.12  -0.10     0.03   0.15   0.04    -0.02  -0.05   0.11
  14   6     0.01   0.05  -0.05     0.05   0.13   0.04    -0.01  -0.05   0.10
  15   7     0.01   0.07  -0.06     0.04   0.11   0.03    -0.01  -0.04   0.09
  16   6    -0.00  -0.01   0.00     0.07   0.13   0.04    -0.01  -0.05   0.11
  17   6    -0.02  -0.07   0.05     0.08   0.11   0.04     0.00  -0.05   0.10
  18   6    -0.03  -0.14   0.10     0.10   0.12   0.04     0.01  -0.05   0.10
  19   6    -0.04  -0.18   0.13     0.11   0.09   0.04     0.02  -0.04   0.08
  20   6    -0.03  -0.14   0.10     0.09   0.07   0.03     0.02  -0.03   0.07
  21   7    -0.02  -0.08   0.06     0.08   0.09   0.03     0.01  -0.04   0.08
  22   6    -0.04  -0.17   0.12     0.10   0.05   0.02     0.02  -0.02   0.04
  23   6    -0.03  -0.13   0.10     0.08   0.03   0.02     0.02  -0.01   0.03
  24   7    -0.02  -0.07   0.05     0.06   0.04   0.02     0.01  -0.01   0.03
  25   1    -0.01  -0.06   0.05     0.03  -0.00   0.00     0.01   0.00  -0.00
  26   1    -0.01  -0.04   0.03     0.02  -0.01   0.00     0.01   0.01  -0.01
  27   1     0.01   0.04  -0.03    -0.00   0.00  -0.00    -0.01   0.00  -0.00
  28   1     0.01   0.07  -0.05    -0.01   0.02   0.00    -0.01  -0.00   0.01
  29   1     0.00   0.01  -0.01     0.01   0.02   0.01    -0.00  -0.00   0.01
  30   1     0.01   0.07  -0.05    -0.00   0.03   0.01    -0.01  -0.01   0.02
  31   1     0.01   0.06  -0.05    -0.00   0.04   0.01    -0.01  -0.01   0.03
  32   1     0.01   0.03  -0.03     0.01   0.05   0.01    -0.01  -0.02   0.04
  33   1    -0.00  -0.00   0.00     0.02   0.04   0.01    -0.00  -0.02   0.04
  34   1    -0.01  -0.04   0.03     0.03   0.04   0.01     0.00  -0.02   0.03
  35   1    -0.02  -0.07   0.05     0.04   0.03   0.01     0.01  -0.01   0.02
  36   1    -0.00  -0.01   0.01     0.02   0.02   0.01     0.00  -0.01   0.02
  37   1    -0.01  -0.06   0.05     0.03   0.01   0.01     0.01  -0.01   0.01
  38   6    -0.00   0.01   0.02     0.01   0.04   0.02    -0.07   0.05   0.18
  39   6    -0.00   0.01   0.01     0.01   0.02   0.01    -0.05   0.04   0.12
  40   6    -0.00   0.01   0.00    -0.01   0.03   0.01    -0.02   0.01   0.07
  41   6     0.00   0.01  -0.00    -0.03   0.01   0.01     0.00  -0.00  -0.01
  42   6     0.00   0.00  -0.01    -0.05   0.01   0.01     0.03  -0.03  -0.06
  43   6     0.00  -0.00  -0.02    -0.06  -0.00  -0.00     0.05  -0.04  -0.13
  44   6     0.01  -0.00  -0.03    -0.08   0.01   0.00     0.07  -0.06  -0.17
  45   6     0.01  -0.00  -0.03    -0.08   0.04   0.01     0.05  -0.06  -0.11
  46   7     0.00   0.00  -0.02    -0.06   0.04   0.01     0.03  -0.04  -0.05
  47   6     0.01  -0.01  -0.04    -0.09   0.06   0.02     0.06  -0.07  -0.12
  48   6     0.01  -0.01  -0.04    -0.09   0.08   0.03     0.05  -0.06  -0.07
  49   6     0.01  -0.01  -0.05    -0.11   0.10   0.03     0.06  -0.08  -0.08
  50   6     0.01  -0.01  -0.04    -0.10   0.12   0.04     0.04  -0.07  -0.02
  51   6     0.01  -0.00  -0.03    -0.08   0.11   0.04     0.02  -0.04   0.03
  52   7     0.01  -0.00  -0.03    -0.08   0.10   0.04     0.03  -0.05   0.00
  53   6     0.00  -0.00  -0.03    -0.06   0.13   0.05    -0.01  -0.03   0.11
  54   6     0.00   0.00  -0.02    -0.04   0.12   0.05    -0.03  -0.01   0.16
  55   6     0.00   0.00  -0.01    -0.03   0.14   0.06    -0.05   0.01   0.24
  56   6     0.00   0.01  -0.00    -0.01   0.12   0.05    -0.07   0.03   0.27
  57   6    -0.00   0.01  -0.00    -0.01   0.10   0.04    -0.06   0.02   0.21
  58   7     0.00   0.00  -0.01    -0.04   0.11   0.04    -0.03   0.00   0.16
  59   6    -0.00   0.01   0.01     0.00   0.08   0.03    -0.07   0.04   0.22
  60   6    -0.00   0.01   0.01    -0.00   0.06   0.03    -0.05   0.03   0.17
  61   7     0.00   0.01  -0.00    -0.02   0.05   0.02    -0.03   0.01   0.10
  62   1    -0.00   0.00   0.01     0.01   0.01   0.01    -0.03   0.02   0.07
  63   1    -0.00   0.00   0.01     0.00   0.00   0.00    -0.01   0.01   0.03
  64   1     0.00  -0.00  -0.01    -0.02  -0.01  -0.00     0.02  -0.01  -0.05
  65   1     0.00  -0.00  -0.01    -0.03   0.00  -0.00     0.03  -0.02  -0.06
  66   1     0.00   0.00  -0.00    -0.01   0.01   0.01     0.00  -0.01  -0.00
  67   1     0.00  -0.00  -0.01    -0.03   0.01   0.00     0.02  -0.03  -0.05
  68   1     0.00  -0.00  -0.02    -0.04   0.03   0.01     0.02  -0.03  -0.04
  69   1     0.00  -0.00  -0.01    -0.03   0.04   0.01     0.01  -0.02  -0.00
  70   1     0.00  -0.00  -0.01    -0.02   0.04   0.02    -0.00  -0.01   0.04
  71   1     0.00   0.00  -0.00    -0.01   0.05   0.02    -0.02   0.00   0.08
  72   1    -0.00   0.00   0.00     0.00   0.04   0.02    -0.03   0.01   0.09
  73   1     0.00   0.00  -0.00    -0.01   0.02   0.01    -0.00  -0.00   0.03
  74   1    -0.00   0.00   0.00     0.00   0.02   0.01    -0.03   0.02   0.08
  75   6    -0.00   0.01  -0.01     0.02  -0.02  -0.00     0.00   0.02  -0.02
  76   6    -0.00   0.01  -0.01     0.01  -0.04  -0.01     0.00   0.02  -0.03
  77   6    -0.00   0.01  -0.01     0.01  -0.06  -0.02     0.00   0.03  -0.05
  78   6    -0.00   0.01  -0.01     0.01  -0.07  -0.02     0.00   0.03  -0.06
  79   6    -0.00   0.00  -0.00     0.00  -0.09  -0.03     0.00   0.03  -0.07
  80   6    -0.00  -0.00   0.00     0.00  -0.10  -0.03     0.00   0.03  -0.07
  81   6    -0.00   0.01   0.02    -0.00  -0.09  -0.03     0.00   0.02  -0.08
  82   6    -0.00   0.01   0.02    -0.00  -0.08  -0.03     0.00   0.02  -0.08
  83   6    -0.00   0.01   0.01    -0.01  -0.07  -0.02     0.00   0.02  -0.07
  84   6    -0.00   0.01   0.01    -0.01  -0.05  -0.02     0.00   0.02  -0.06
  85   6    -0.00   0.01   0.00    -0.02  -0.03  -0.01     0.00   0.01  -0.04
  86   6     0.00   0.01   0.00    -0.02  -0.01  -0.00     0.00   0.01  -0.03
  87   6    -0.01   0.12   0.10    -0.00  -0.11  -0.04     0.00   0.05  -0.07
  88   6    -0.00   0.09   0.07    -0.00  -0.11  -0.04     0.00   0.05  -0.07
  89   6    -0.00   0.04   0.04    -0.00  -0.11  -0.04     0.00   0.04  -0.07
  90   6    -0.00  -0.01   0.01    -0.00  -0.11  -0.04     0.00   0.03  -0.08
  91   6     0.00  -0.06  -0.02    -0.00  -0.11  -0.04     0.00   0.02  -0.08
  92   6     0.00  -0.11  -0.05    -0.00  -0.11  -0.04     0.00   0.02  -0.09
  93   6     0.00  -0.14  -0.06    -0.00  -0.12  -0.05     0.00   0.01  -0.09
  94   6     0.00  -0.12  -0.04    -0.00  -0.12  -0.05     0.00   0.01  -0.09
  95   7     0.00  -0.07  -0.02    -0.00  -0.12  -0.05     0.00   0.02  -0.09
  96   6     0.00  -0.14  -0.05    -0.00  -0.12  -0.05     0.00   0.01  -0.09
  97   6     0.00  -0.11  -0.04    -0.00  -0.12  -0.04     0.00   0.01  -0.09
  98   6     0.00  -0.13  -0.05    -0.00  -0.11  -0.04     0.00   0.00  -0.09
  99   6     0.00  -0.10  -0.03    -0.00  -0.11  -0.04     0.00   0.01  -0.09
 100   6     0.00  -0.05  -0.00    -0.00  -0.11  -0.04     0.00   0.02  -0.09
 101   7     0.00  -0.06  -0.01    -0.00  -0.12  -0.04     0.00   0.02  -0.09
 102   6    -0.00   0.00   0.02    -0.00  -0.10  -0.04     0.00   0.03  -0.08
 103   6    -0.00   0.05   0.05    -0.00  -0.11  -0.04     0.00   0.03  -0.08
 104   6    -0.00   0.10   0.08    -0.00  -0.11  -0.04     0.00   0.04  -0.07
 105   6    -0.01   0.13   0.11    -0.00  -0.11  -0.04     0.00   0.05  -0.07
 106   6    -0.00   0.10   0.09    -0.00  -0.11  -0.04     0.00   0.04  -0.07
 107   7    -0.00   0.06   0.06    -0.00  -0.12  -0.04     0.00   0.04  -0.08
 108   6    -0.01   0.12   0.10    -0.00  -0.11  -0.04     0.00   0.05  -0.07
 109   6    -0.00   0.10   0.08    -0.00  -0.11  -0.04     0.00   0.04  -0.07
 110   7    -0.00   0.05   0.05    -0.00  -0.12  -0.04     0.00   0.04  -0.08
 111   1    -0.00   0.05   0.04    -0.00  -0.03  -0.01     0.00   0.02  -0.02
 112   1    -0.00   0.03   0.02    -0.00  -0.03  -0.01     0.00   0.01  -0.02
 113   1     0.00  -0.03  -0.02    -0.00  -0.03  -0.01     0.00   0.01  -0.02
 114   1     0.00  -0.05  -0.03    -0.00  -0.04  -0.01     0.00   0.00  -0.03
 115   1    -0.00  -0.01   0.00    -0.00  -0.03  -0.01     0.00   0.01  -0.02
 116   1     0.00  -0.05  -0.02    -0.00  -0.04  -0.01     0.00  -0.00  -0.03
 117   1     0.00  -0.05  -0.02    -0.00  -0.03  -0.01     0.00  -0.00  -0.03
 118   1     0.00  -0.03  -0.01    -0.00  -0.03  -0.01     0.00   0.00  -0.03
 119   1    -0.00   0.03   0.03    -0.00  -0.03  -0.01     0.00   0.01  -0.02
 120   1    -0.00   0.05   0.04    -0.00  -0.03  -0.01     0.00   0.01  -0.02
 121   1    -0.00   0.01   0.01    -0.00  -0.03  -0.01     0.00   0.01  -0.02
 122   1    -0.00   0.05   0.04    -0.00  -0.03  -0.01     0.00   0.02  -0.02
                      4                      5                      6
                        a                      a                      a 
 Frequencies --     3.5864                 6.9723                 7.2853
 Red. masses --    11.3184                11.5233                11.5648
 Frc consts  --     0.0000                 0.0000                 0.0000
 IR Inten    --     0.5330                 0.2303                 0.3878
 Raman Activ --     0.0000                 0.0000                 0.0000
 Depolar     --     0.0000                 0.0000                 0.0000
 Atom AN      X      Y      Z        X      Y      Z        X      Y      Z
   1   6    -0.04  -0.06   0.06    -0.03  -0.07   0.08    -0.09   0.09   0.06
   2   6    -0.03  -0.05   0.05    -0.03  -0.09   0.10    -0.06   0.10   0.07
   3   6    -0.01  -0.02   0.02    -0.01  -0.07   0.07    -0.03   0.08   0.06
   4   6    -0.00   0.00   0.01    -0.01  -0.07   0.08     0.01   0.08   0.07
   5   6     0.01   0.03  -0.02     0.01  -0.06   0.06     0.04   0.06   0.05
   6   6     0.03   0.05  -0.04     0.01  -0.07   0.07     0.08   0.06   0.06
   7   6     0.04   0.07  -0.06     0.02  -0.05   0.04     0.10   0.03   0.03
   8   6     0.03   0.06  -0.06     0.02  -0.02   0.01     0.07   0.01   0.01
   9   7     0.02   0.04  -0.04     0.01  -0.03   0.03     0.04   0.03   0.03
  10   6     0.04   0.07  -0.08     0.03   0.01  -0.02     0.08  -0.02  -0.01
  11   6     0.03   0.06  -0.08     0.03   0.05  -0.06     0.05  -0.05  -0.03
  12   6     0.04   0.08  -0.11     0.05   0.08  -0.10     0.06  -0.08  -0.06
  13   6     0.02   0.06  -0.10     0.04   0.11  -0.12     0.02  -0.10  -0.07
  14   6     0.01   0.04  -0.07     0.03   0.09  -0.10    -0.01  -0.07  -0.05
  15   7     0.01   0.04  -0.07     0.03   0.05  -0.06     0.01  -0.04  -0.03
  16   6    -0.00   0.01  -0.06     0.03   0.10  -0.11    -0.05  -0.08  -0.06
  17   6    -0.02  -0.01  -0.03     0.01   0.08  -0.09    -0.08  -0.05  -0.05
  18   6    -0.03  -0.04  -0.02     0.01   0.10  -0.10    -0.12  -0.06  -0.05
  19   6    -0.04  -0.06   0.01    -0.00   0.06  -0.07    -0.13  -0.03  -0.03
  20   6    -0.03  -0.04   0.01    -0.01   0.03  -0.03    -0.10  -0.00  -0.01
  21   7    -0.02  -0.02  -0.02     0.01   0.05  -0.05    -0.07  -0.02  -0.02
  22   6    -0.04  -0.06   0.03    -0.02  -0.01   0.01    -0.11   0.03   0.01
  23   6    -0.03  -0.05   0.03    -0.02  -0.04   0.04    -0.08   0.05   0.03
  24   7    -0.02  -0.02   0.01    -0.01  -0.04   0.04    -0.04   0.05   0.04
  25   1    -0.01  -0.02   0.02    -0.01  -0.02   0.02    -0.03   0.03   0.02
  26   1    -0.01  -0.01   0.02    -0.01  -0.03   0.04    -0.01   0.04   0.03
  27   1     0.01   0.02  -0.01     0.00  -0.03   0.03     0.03   0.02   0.02
  28   1     0.01   0.03  -0.02     0.01  -0.01   0.01     0.04   0.01   0.01
  29   1     0.00   0.01  -0.01     0.00  -0.00   0.00     0.00   0.01   0.00
  30   1     0.01   0.03  -0.03     0.01   0.00  -0.01     0.03  -0.01  -0.00
  31   1     0.01   0.03  -0.04     0.02   0.03  -0.03     0.03  -0.03  -0.02
  32   1     0.01   0.02  -0.03     0.01   0.04  -0.05     0.01  -0.04  -0.03
  33   1    -0.00   0.00  -0.02     0.01   0.04  -0.04    -0.02  -0.03  -0.02
  34   1    -0.01  -0.01  -0.01     0.00   0.04  -0.04    -0.04  -0.02  -0.02
  35   1    -0.02  -0.02   0.01    -0.00   0.02  -0.02    -0.05  -0.01  -0.01
  36   1    -0.00  -0.00  -0.01     0.00   0.01  -0.01    -0.01  -0.00  -0.00
  37   1    -0.02  -0.02   0.01    -0.01  -0.00   0.00    -0.04   0.01   0.00
  38   6     0.01   0.04   0.14    -0.09   0.03  -0.05     0.05  -0.05  -0.08
  39   6     0.01   0.02   0.11    -0.07   0.05  -0.07     0.05  -0.07  -0.09
  40   6     0.01   0.01   0.05    -0.03   0.04  -0.06     0.03  -0.06  -0.07
  41   6     0.00  -0.02   0.01    -0.00   0.06  -0.07     0.01  -0.07  -0.08
  42   6    -0.00  -0.04  -0.05     0.03   0.06  -0.06    -0.01  -0.06  -0.06
  43   6    -0.01  -0.06  -0.09     0.06   0.07  -0.08    -0.02  -0.08  -0.07
  44   6    -0.01  -0.07  -0.14     0.09   0.06  -0.06    -0.04  -0.06  -0.04
  45   6    -0.01  -0.05  -0.13     0.07   0.03  -0.03    -0.04  -0.03  -0.02
  46   7    -0.01  -0.03  -0.08     0.04   0.03  -0.04    -0.02  -0.04  -0.03
  47   6    -0.02  -0.05  -0.17     0.09   0.01  -0.00    -0.06  -0.00   0.02
  48   6    -0.01  -0.03  -0.16     0.07  -0.01   0.03    -0.06   0.03   0.05
  49   6    -0.02  -0.03  -0.20     0.09  -0.03   0.06    -0.08   0.06   0.09
  50   6    -0.01  -0.00  -0.18     0.07  -0.05   0.08    -0.08   0.08   0.12
  51   6    -0.01   0.01  -0.12     0.04  -0.04   0.07    -0.06   0.06   0.09
  52   7    -0.01  -0.00  -0.11     0.04  -0.02   0.04    -0.05   0.04   0.06
  53   6    -0.00   0.04  -0.08     0.01  -0.06   0.09    -0.05   0.08   0.11
  54   6     0.00   0.05  -0.02    -0.02  -0.06   0.08    -0.03   0.07   0.09
  55   6     0.00   0.08   0.03    -0.05  -0.07   0.10    -0.01   0.08   0.10
  56   6     0.01   0.09   0.08    -0.08  -0.06   0.07     0.01   0.06   0.06
  57   6     0.01   0.06   0.07    -0.06  -0.03   0.04     0.01   0.03   0.03
  58   7     0.00   0.05   0.01    -0.03  -0.04   0.05    -0.01   0.04   0.05
  59   6     0.01   0.06   0.10    -0.08  -0.02   0.01     0.03   0.00  -0.01
  60   6     0.01   0.04   0.09    -0.07   0.01  -0.02     0.03  -0.03  -0.04
  61   7     0.00   0.02   0.04    -0.04   0.02  -0.03     0.02  -0.03  -0.04
  62   1     0.00   0.02   0.05    -0.03   0.01  -0.01     0.02  -0.02  -0.03
  63   1     0.00   0.00   0.04    -0.02   0.02  -0.03     0.02  -0.03  -0.04
  64   1    -0.00  -0.02  -0.03     0.02   0.03  -0.03    -0.00  -0.03  -0.03
  65   1    -0.01  -0.03  -0.05     0.03   0.02  -0.02    -0.01  -0.02  -0.01
  66   1    -0.00  -0.00  -0.01     0.01   0.00  -0.01    -0.00  -0.01  -0.00
  67   1    -0.01  -0.02  -0.06     0.03   0.00  -0.00    -0.02  -0.00   0.01
  68   1    -0.01  -0.01  -0.07     0.04  -0.01   0.02    -0.03   0.02   0.03
  69   1    -0.00   0.00  -0.06     0.02  -0.02   0.03    -0.03   0.03   0.04
  70   1    -0.00   0.01  -0.03     0.00  -0.02   0.03    -0.02   0.03   0.04
  71   1     0.00   0.03   0.01    -0.02  -0.03   0.04    -0.01   0.03   0.04
  72   1     0.00   0.03   0.03    -0.03  -0.02   0.02     0.01   0.02   0.02
  73   1    -0.00   0.01  -0.00    -0.00  -0.01   0.01    -0.00   0.01   0.01
  74   1     0.00   0.02   0.04    -0.03  -0.01   0.00     0.01   0.00  -0.01
  75   6     0.00   0.00   0.02    -0.01  -0.10   0.11     0.02   0.11   0.09
  76   6     0.00   0.00   0.03    -0.01  -0.11   0.12     0.03   0.12   0.10
  77   6     0.00   0.00   0.04    -0.01  -0.11   0.13     0.03   0.13   0.11
  78   6     0.00   0.00   0.04    -0.01  -0.11   0.13     0.03   0.13   0.11
  79   6     0.00   0.00   0.05    -0.01  -0.11   0.12     0.03   0.12   0.10
  80   6     0.00   0.00   0.05    -0.01  -0.09   0.10     0.02   0.10   0.08
  81   6     0.00  -0.04   0.05    -0.01   0.08  -0.09     0.03  -0.10  -0.10
  82   6     0.01  -0.04   0.05    -0.01   0.10  -0.11     0.03  -0.11  -0.11
  83   6     0.01  -0.04   0.05    -0.01   0.10  -0.12     0.03  -0.12  -0.12
  84   6     0.01  -0.04   0.04    -0.01   0.11  -0.12     0.03  -0.12  -0.12
  85   6     0.01  -0.04   0.03    -0.01   0.10  -0.11     0.03  -0.11  -0.11
  86   6     0.00  -0.03   0.02    -0.01   0.09  -0.10     0.02  -0.10  -0.10
  87   6    -0.00  -0.15  -0.05     0.08  -0.06   0.05     0.04   0.07   0.05
  88   6    -0.00  -0.11  -0.02     0.06  -0.08   0.07     0.03   0.09   0.07
  89   6     0.00  -0.05   0.01     0.02  -0.06   0.06     0.03   0.07   0.05
  90   6     0.00   0.00   0.05    -0.01  -0.07   0.08     0.02   0.07   0.06
  91   6     0.00   0.06   0.08    -0.04  -0.06   0.06     0.01   0.05   0.05
  92   6     0.01   0.12   0.11    -0.08  -0.06   0.08     0.00   0.06   0.05
  93   6     0.01   0.16   0.13    -0.10  -0.04   0.06    -0.00   0.03   0.03
  94   6     0.01   0.12   0.11    -0.08  -0.02   0.03     0.00   0.01   0.01
  95   7     0.00   0.07   0.09    -0.05  -0.03   0.04     0.01   0.03   0.02
  96   6     0.01   0.15   0.13    -0.10   0.00   0.01    -0.00  -0.02  -0.02
  97   6     0.01   0.11   0.11    -0.08   0.03  -0.02     0.00  -0.05  -0.04
  98   6     0.01   0.13   0.13    -0.10   0.05  -0.04    -0.00  -0.08  -0.07
  99   6     0.01   0.08   0.11    -0.07   0.07  -0.06     0.01  -0.10  -0.09
 100   6     0.00   0.03   0.08    -0.04   0.05  -0.05     0.01  -0.08  -0.07
 101   7     0.01   0.05   0.08    -0.05   0.03  -0.03     0.01  -0.05  -0.05
 102   6     0.00  -0.03   0.04    -0.01   0.06  -0.07     0.02  -0.08  -0.08
 103   6     0.00  -0.08   0.01     0.03   0.04  -0.06     0.03  -0.06  -0.06
 104   6    -0.00  -0.14  -0.03     0.06   0.05  -0.07     0.03  -0.07  -0.07
 105   6    -0.00  -0.17  -0.05     0.08   0.03  -0.05     0.04  -0.04  -0.05
 106   6    -0.00  -0.13  -0.04     0.07   0.01  -0.03     0.03  -0.02  -0.03
 107   7     0.00  -0.08   0.00     0.03   0.02  -0.03     0.03  -0.04  -0.04
 108   6    -0.00  -0.15  -0.05     0.08  -0.02  -0.00     0.03   0.01   0.00
 109   6    -0.00  -0.12  -0.03     0.06  -0.04   0.03     0.03   0.04   0.03
 110   7    -0.00  -0.07   0.00     0.03  -0.04   0.03     0.03   0.04   0.03
 111   1    -0.00  -0.06  -0.02     0.03  -0.02   0.01     0.01   0.02   0.02
 112   1    -0.00  -0.03  -0.01     0.02  -0.03   0.03     0.01   0.03   0.03
 113   1     0.00   0.04   0.03    -0.02  -0.02   0.03     0.00   0.02   0.02
 114   1     0.00   0.06   0.05    -0.04  -0.01   0.02    -0.00   0.01   0.01
 115   1     0.00   0.01   0.02    -0.01  -0.01   0.01     0.00   0.00   0.00
 116   1     0.00   0.06   0.05    -0.04   0.00   0.00    -0.00  -0.01  -0.01
 117   1     0.00   0.05   0.05    -0.04   0.02  -0.01    -0.00  -0.03  -0.02
 118   1     0.00   0.02   0.03    -0.02   0.03  -0.02     0.00  -0.04  -0.03
 119   1    -0.00  -0.04  -0.01     0.02   0.02  -0.03     0.01  -0.03  -0.03
 120   1    -0.00  -0.06  -0.02     0.03   0.01  -0.02     0.01  -0.01  -0.01
 121   1     0.00  -0.01   0.01     0.00   0.00  -0.00     0.01  -0.01  -0.01
 122   1    -0.00  -0.06  -0.02     0.03  -0.01  -0.00     0.01   0.00   0.00
                      7                      8                      9
                        a                      a                      a 
 Frequencies --    13.1328                16.6092                22.4941
 Red. masses --    11.5604                11.5217                11.4648
 Frc consts  --     0.0000                 0.0000                 0.0000
 IR Inten    --     3.8512                 7.5508                 3.5095
 Raman Activ --     0.0000                 0.0000                 0.0000
 Depolar     --     0.0000                 0.0000                 0.0000
 Atom AN      X      Y      Z        X      Y      Z        X      Y      Z
   1   6    -0.06   0.12   0.04     0.05   0.12  -0.14    -0.06  -0.03   0.11
   2   6    -0.03   0.14   0.05     0.05   0.13  -0.15    -0.04  -0.02   0.12
   3   6    -0.00   0.11   0.04     0.03   0.10  -0.12    -0.02  -0.01   0.09
   4   6     0.03   0.11   0.05     0.02   0.09  -0.12     0.00  -0.00   0.09
   5   6     0.06   0.09   0.04     0.01   0.10  -0.11     0.02  -0.02   0.09
   6   6     0.09   0.10   0.04     0.01   0.12  -0.13     0.03  -0.03   0.10
   7   6     0.11   0.07   0.02    -0.00   0.12  -0.12     0.04  -0.05   0.10
   8   6     0.08   0.04   0.01    -0.00   0.09  -0.09     0.03  -0.05   0.07
   9   7     0.05   0.06   0.02     0.01   0.09  -0.09     0.02  -0.03   0.07
  10   6     0.08   0.00  -0.00    -0.01   0.06  -0.05     0.04  -0.05   0.04
  11   6     0.06  -0.03  -0.01    -0.02   0.00   0.01     0.03  -0.02   0.00
  12   6     0.06  -0.08  -0.02    -0.03  -0.05   0.06     0.04  -0.00  -0.03
  13   6     0.03  -0.10  -0.02    -0.04  -0.11   0.11     0.04   0.03  -0.07
  14   6     0.00  -0.07  -0.01    -0.02  -0.09   0.08     0.02   0.03  -0.05
  15   7     0.02  -0.03  -0.01    -0.01  -0.03   0.02     0.02   0.00  -0.01
  16   6    -0.03  -0.09  -0.01    -0.02  -0.12   0.12     0.00   0.05  -0.08
  17   6    -0.06  -0.06  -0.01    -0.00  -0.09   0.08    -0.02   0.04  -0.05
  18   6    -0.09  -0.07  -0.01     0.00  -0.12   0.10    -0.04   0.05  -0.07
  19   6    -0.10  -0.02  -0.00     0.02  -0.06   0.05    -0.05   0.03  -0.02
  20   6    -0.08   0.01   0.00     0.02  -0.01  -0.00    -0.05   0.00   0.01
  21   7    -0.05  -0.01   0.00     0.01  -0.03   0.02    -0.03   0.01  -0.01
  22   6    -0.08   0.06   0.01     0.04   0.05  -0.06    -0.06  -0.02   0.06
  23   6    -0.05   0.08   0.02     0.04   0.08  -0.10    -0.05  -0.03   0.08
  24   7    -0.02   0.08   0.03     0.03   0.08  -0.09    -0.02  -0.02   0.08
  25   1    -0.02   0.04   0.01     0.02   0.04  -0.04    -0.02  -0.01   0.04
  26   1    -0.01   0.05   0.02     0.01   0.04  -0.05    -0.01  -0.01   0.04
  27   1     0.03   0.04   0.02     0.00   0.04  -0.05     0.01  -0.01   0.03
  28   1     0.04   0.02   0.01    -0.00   0.04  -0.04     0.02  -0.02   0.03
  29   1     0.01   0.01   0.00     0.00   0.02  -0.02     0.00  -0.01   0.02
  30   1     0.03  -0.00  -0.00    -0.01   0.02  -0.02     0.02  -0.02   0.01
  31   1     0.03  -0.02  -0.01    -0.01  -0.01   0.02     0.02  -0.00  -0.01
  32   1     0.01  -0.04  -0.01    -0.01  -0.05   0.05     0.01   0.01  -0.03
  33   1    -0.01  -0.04  -0.01    -0.01  -0.05   0.05     0.00   0.02  -0.03
  34   1    -0.03  -0.03  -0.01    -0.00  -0.05   0.04    -0.01   0.02  -0.03
  35   1    -0.04  -0.00  -0.00     0.01  -0.02   0.01    -0.02   0.01  -0.01
  36   1    -0.01   0.00   0.00     0.00  -0.00  -0.00    -0.00   0.00   0.00
  37   1    -0.03   0.02   0.00     0.02   0.02  -0.02    -0.02  -0.01   0.02
  38   6    -0.09   0.08   0.10    -0.05   0.01  -0.13    -0.02  -0.01  -0.15
  39   6    -0.08   0.11   0.11    -0.04   0.03  -0.14    -0.02   0.01  -0.14
  40   6    -0.05   0.09   0.09    -0.02   0.03  -0.11    -0.01   0.02  -0.10
  41   6    -0.04   0.11   0.09    -0.00   0.04  -0.11     0.00   0.03  -0.09
  42   6    -0.01   0.10   0.09     0.02   0.04  -0.11     0.02   0.03  -0.10
  43   6     0.00   0.13   0.11     0.05   0.05  -0.13     0.04   0.03  -0.12
  44   6     0.03   0.11   0.10     0.06   0.04  -0.11     0.06   0.02  -0.13
  45   6     0.03   0.07   0.06     0.05   0.03  -0.08     0.05   0.01  -0.10
  46   7     0.00   0.07   0.07     0.03   0.03  -0.09     0.03   0.01  -0.09
  47   6     0.05   0.04   0.03     0.06   0.02  -0.04     0.06   0.00  -0.07
  48   6     0.06  -0.00  -0.01     0.04   0.01   0.01     0.04   0.00  -0.01
  49   6     0.08  -0.04  -0.06     0.05   0.01   0.06     0.04   0.01   0.04
  50   6     0.08  -0.07  -0.10     0.03   0.00   0.10     0.02   0.01   0.10
  51   6     0.05  -0.06  -0.08     0.01   0.00   0.08     0.01   0.01   0.08
  52   7     0.04  -0.02  -0.03     0.02   0.01   0.02     0.02   0.01   0.01
  53   6     0.04  -0.09  -0.11    -0.02  -0.01   0.11    -0.01   0.01   0.12
  54   6     0.01  -0.07  -0.09    -0.03  -0.01   0.08    -0.02   0.01   0.08
  55   6    -0.00  -0.09  -0.11    -0.06  -0.02   0.10    -0.04   0.00   0.10
  56   6    -0.03  -0.06  -0.06    -0.07  -0.02   0.05    -0.04  -0.01   0.04
  57   6    -0.04  -0.02  -0.02    -0.05  -0.01   0.00    -0.03  -0.01  -0.02
  58   7    -0.01  -0.03  -0.04    -0.03  -0.01   0.02    -0.02  -0.00   0.02
  59   6    -0.06   0.01   0.03    -0.05  -0.01  -0.06    -0.03  -0.02  -0.08
  60   6    -0.06   0.05   0.06    -0.04   0.00  -0.09    -0.02  -0.01  -0.11
  61   7    -0.05   0.06   0.06    -0.02   0.01  -0.09    -0.01   0.01  -0.10
  62   1    -0.03   0.02   0.03    -0.02   0.00  -0.04    -0.01  -0.01  -0.05
  63   1    -0.03   0.04   0.04    -0.01   0.01  -0.05    -0.01   0.01  -0.04
  64   1    -0.00   0.04   0.04     0.01   0.02  -0.04     0.01   0.01  -0.04
  65   1     0.01   0.03   0.03     0.02   0.01  -0.04     0.02   0.00  -0.04
  66   1    -0.00   0.01   0.01     0.00   0.00  -0.02     0.00   0.00  -0.02
  67   1     0.02   0.01   0.01     0.02   0.01  -0.01     0.02  -0.00  -0.03
  68   1     0.03  -0.01  -0.02     0.02   0.00   0.02     0.02   0.00   0.01
  69   1     0.03  -0.03  -0.04     0.01  -0.00   0.04     0.00   0.01   0.04
  70   1     0.02  -0.03  -0.04    -0.01  -0.00   0.05    -0.01   0.01   0.05
  71   1     0.00  -0.04  -0.04    -0.02  -0.01   0.04    -0.01   0.00   0.05
  72   1    -0.02  -0.02  -0.02    -0.02  -0.01   0.01    -0.02  -0.00   0.01
  73   1    -0.00  -0.00  -0.00    -0.00   0.00  -0.00    -0.00   0.00  -0.00
  74   1    -0.02   0.00   0.01    -0.02  -0.01  -0.02    -0.01  -0.01  -0.03
  75   6     0.04   0.13   0.07     0.02   0.08  -0.12     0.01   0.03   0.08
  76   6     0.04   0.12   0.07     0.01   0.05  -0.09     0.01   0.05   0.03
  77   6     0.03   0.10   0.07     0.00   0.01  -0.05     0.01   0.06  -0.01
  78   6     0.03   0.07   0.05    -0.00  -0.02  -0.01     0.01   0.06  -0.08
  79   6     0.02   0.04   0.03    -0.00  -0.05   0.03     0.00   0.05  -0.11
  80   6     0.01  -0.00   0.01    -0.00  -0.08   0.06     0.00   0.03  -0.14
  81   6    -0.01   0.00  -0.01    -0.01   0.00   0.06    -0.01  -0.00   0.18
  82   6    -0.02   0.04   0.02    -0.01   0.02   0.03    -0.01   0.02   0.16
  83   6    -0.03   0.08   0.04    -0.01   0.04  -0.01    -0.01   0.03   0.13
  84   6    -0.03   0.11   0.06    -0.01   0.06  -0.05    -0.01   0.05   0.07
  85   6    -0.04   0.12   0.08    -0.01   0.06  -0.09    -0.01   0.06   0.01
  86   6    -0.04   0.13   0.09    -0.01   0.06  -0.11    -0.00   0.06  -0.06
  87   6     0.01  -0.10  -0.05     0.01  -0.09   0.05    -0.11  -0.04  -0.12
  88   6     0.01  -0.07  -0.03     0.01  -0.09   0.05    -0.08  -0.03  -0.14
  89   6     0.01  -0.06  -0.03     0.00  -0.08   0.06    -0.04  -0.01  -0.11
  90   6     0.01  -0.04  -0.02    -0.00  -0.07   0.07    -0.00   0.01  -0.12
  91   6     0.00  -0.06  -0.03    -0.01  -0.06   0.07     0.04  -0.00  -0.11
  92   6    -0.00  -0.06  -0.03    -0.01  -0.06   0.08     0.08  -0.00  -0.13
  93   6    -0.01  -0.08  -0.04    -0.02  -0.04   0.08     0.11  -0.02  -0.10
  94   6    -0.00  -0.09  -0.05    -0.02  -0.03   0.08     0.09  -0.03  -0.05
  95   7     0.00  -0.08  -0.05    -0.01  -0.05   0.08     0.05  -0.02  -0.07
  96   6    -0.01  -0.10  -0.06    -0.02  -0.01   0.08     0.11  -0.04  -0.01
  97   6    -0.00  -0.09  -0.06    -0.02  -0.00   0.08     0.08  -0.03   0.04
  98   6    -0.01  -0.09  -0.06    -0.02   0.01   0.09     0.11  -0.03   0.09
  99   6    -0.01  -0.06  -0.04    -0.02   0.02   0.08     0.07  -0.02   0.13
 100   6    -0.01  -0.06  -0.04    -0.01  -0.00   0.08     0.03  -0.01   0.11
 101   7    -0.01  -0.08  -0.05    -0.01  -0.02   0.08     0.04  -0.02   0.06
 102   6    -0.01  -0.04  -0.03    -0.01  -0.01   0.07    -0.01  -0.01   0.14
 103   6    -0.00  -0.06  -0.04     0.00  -0.02   0.06    -0.04  -0.01   0.11
 104   6     0.00  -0.06  -0.05     0.01  -0.03   0.06    -0.09  -0.01   0.14
 105   6     0.01  -0.09  -0.06     0.01  -0.04   0.05    -0.11  -0.02   0.09
 106   6     0.01  -0.10  -0.06     0.01  -0.05   0.06    -0.09  -0.03   0.04
 107   7     0.00  -0.09  -0.05     0.00  -0.04   0.07    -0.05  -0.02   0.06
 108   6     0.01  -0.11  -0.07     0.01  -0.07   0.05    -0.11  -0.04  -0.02
 109   6     0.01  -0.10  -0.06     0.01  -0.08   0.05    -0.09  -0.04  -0.07
 110   7     0.01  -0.09  -0.05     0.00  -0.07   0.07    -0.05  -0.03  -0.07
 111   1     0.00  -0.03  -0.02     0.00  -0.03   0.01    -0.04  -0.02  -0.04
 112   1     0.00  -0.02  -0.01     0.00  -0.03   0.02    -0.02  -0.01  -0.05
 113   1    -0.00  -0.01  -0.00    -0.00  -0.02   0.02     0.03   0.00  -0.05
 114   1    -0.00  -0.03  -0.01    -0.01  -0.01   0.03     0.04  -0.01  -0.03
 115   1     0.00  -0.02  -0.01    -0.00  -0.01   0.02     0.01  -0.01  -0.01
 116   1    -0.00  -0.03  -0.02    -0.01  -0.00   0.03     0.04  -0.01  -0.00
 117   1    -0.00  -0.03  -0.02    -0.01   0.01   0.03     0.04  -0.01   0.03
 118   1    -0.00  -0.01  -0.01    -0.01   0.01   0.02     0.02  -0.00   0.05
 119   1     0.00  -0.01  -0.01     0.00  -0.01   0.02    -0.03  -0.00   0.05
 120   1     0.00  -0.03  -0.02     0.01  -0.01   0.01    -0.04  -0.01   0.03
 121   1    -0.00  -0.02  -0.01    -0.00  -0.01   0.02    -0.01  -0.01   0.01
 122   1     0.00  -0.04  -0.02     0.01  -0.02   0.01    -0.04  -0.01  -0.01
                     10                     11                     12
                        a                      a                      a 
 Frequencies --    24.1771                29.5359                41.2777
 Red. masses --    11.5454                11.8456                10.8841
 Frc consts  --     0.0000                 0.0000                 0.0000
 IR Inten    --     1.0716                 0.2567                 9.5915
 Raman Activ --     0.0000                 0.0000                 0.0000
 Depolar     --     0.0000                 0.0000                 0.0000
 Atom AN      X      Y      Z        X      Y      Z        X      Y      Z
   1   6     0.02  -0.10  -0.02    -0.11  -0.01  -0.01    -0.02  -0.04   0.04
   2   6     0.01  -0.10  -0.04    -0.10  -0.00  -0.01    -0.01  -0.03   0.04
   3   6    -0.01  -0.07  -0.04    -0.09  -0.00  -0.02    -0.01  -0.01   0.02
   4   6    -0.03  -0.06  -0.05    -0.08  -0.00  -0.02     0.00   0.01  -0.00
   5   6    -0.04  -0.06  -0.03    -0.09   0.01  -0.01     0.00   0.02  -0.01
   6   6    -0.07  -0.07  -0.03    -0.13   0.01  -0.02     0.01   0.04  -0.02
   7   6    -0.09  -0.06  -0.01    -0.14   0.02   0.01     0.01   0.03  -0.01
   8   6    -0.07  -0.04  -0.00    -0.12   0.04   0.03     0.00   0.01   0.00
   9   7    -0.05  -0.05  -0.01    -0.10   0.03   0.02     0.00   0.01   0.00
  10   6    -0.07  -0.02   0.01    -0.13   0.05   0.04    -0.00  -0.02   0.02
  11   6    -0.05   0.01   0.01    -0.13   0.05   0.03    -0.01  -0.02   0.02
  12   6    -0.05   0.04   0.02    -0.13   0.04   0.02    -0.01  -0.04   0.03
  13   6    -0.03   0.07   0.01    -0.14   0.05   0.01    -0.01  -0.03   0.02
  14   6    -0.01   0.05   0.00    -0.14   0.05   0.02    -0.01  -0.01   0.01
  15   7    -0.03   0.02   0.00    -0.15   0.06   0.03    -0.01  -0.01   0.01
  16   6     0.01   0.06  -0.00    -0.15   0.06   0.02    -0.00   0.01  -0.01
  17   6     0.02   0.04  -0.00    -0.13   0.04   0.01    -0.00   0.03  -0.02
  18   6     0.05   0.05  -0.00    -0.10   0.05   0.02     0.00   0.04  -0.03
  19   6     0.06   0.01   0.00    -0.09   0.02   0.00    -0.00   0.03  -0.03
  20   6     0.04  -0.02  -0.00    -0.11   0.01  -0.02    -0.01   0.01  -0.01
  21   7     0.02   0.00  -0.00    -0.15   0.02  -0.01    -0.01   0.01  -0.01
  22   6     0.04  -0.06  -0.00    -0.11  -0.01  -0.03    -0.01  -0.01   0.01
  23   6     0.02  -0.07  -0.01    -0.11  -0.01  -0.02    -0.01  -0.02   0.02
  24   7    -0.00  -0.07  -0.02    -0.10  -0.01  -0.03    -0.01  -0.01   0.01
  25   1     0.01  -0.03  -0.00    -0.03  -0.00  -0.00    -0.01  -0.02   0.02
  26   1     0.00  -0.03  -0.01    -0.03   0.00  -0.00    -0.00  -0.01   0.01
  27   1    -0.02  -0.02  -0.01    -0.04  -0.00  -0.01     0.00   0.02  -0.01
  28   1    -0.03  -0.02  -0.00    -0.05   0.01   0.00     0.00   0.01  -0.00
  29   1    -0.01  -0.01  -0.00    -0.02   0.01   0.01    -0.00  -0.00   0.00
  30   1    -0.03  -0.01   0.01    -0.04   0.01   0.01    -0.00  -0.01   0.01
  31   1    -0.02   0.01   0.01    -0.03   0.01   0.01    -0.00  -0.02   0.01
  32   1    -0.01   0.03   0.00    -0.04   0.01   0.00    -0.00  -0.01   0.01
  33   1     0.01   0.03  -0.00    -0.04   0.02   0.01    -0.00   0.01  -0.01
  34   1     0.02   0.02  -0.00    -0.03   0.02   0.01     0.00   0.02  -0.01
  35   1     0.02  -0.00   0.00    -0.02   0.00   0.00    -0.00   0.01  -0.01
  36   1    -0.00  -0.00  -0.00    -0.05   0.00  -0.01    -0.00  -0.00   0.00
  37   1     0.01  -0.02   0.00    -0.03  -0.00  -0.01    -0.00  -0.01   0.00
  38   6    -0.10   0.08  -0.00     0.14   0.02  -0.01    -0.00   0.00  -0.01
  39   6    -0.09   0.10  -0.02     0.12  -0.00   0.00    -0.00   0.00  -0.02
  40   6    -0.05   0.09  -0.02     0.09   0.01   0.00    -0.00   0.00  -0.01
  41   6    -0.03   0.11  -0.03     0.08  -0.01   0.01    -0.00   0.01  -0.01
  42   6    -0.00   0.10  -0.01     0.08  -0.01   0.01    -0.00   0.01   0.00
  43   6     0.02   0.13  -0.01     0.10   0.00   0.00    -0.00   0.02   0.02
  44   6     0.05   0.11   0.01     0.12  -0.01   0.00     0.00   0.02   0.02
  45   6     0.04   0.08   0.01     0.11  -0.02   0.01     0.00   0.01   0.01
  46   7     0.01   0.08  -0.00     0.10  -0.03   0.01    -0.00   0.01   0.00
  47   6     0.06   0.05   0.02     0.11  -0.02   0.01     0.01   0.01   0.01
  48   6     0.06   0.02   0.01     0.12  -0.00   0.01     0.01  -0.00  -0.00
  49   6     0.08  -0.01   0.01     0.10   0.02   0.01     0.01  -0.01  -0.02
  50   6     0.07  -0.04  -0.00     0.11   0.05   0.02     0.01  -0.01  -0.02
  51   6     0.04  -0.03  -0.01     0.14   0.04   0.03     0.01  -0.01  -0.01
  52   7     0.03   0.00   0.00     0.15   0.01   0.02     0.01  -0.00  -0.00
  53   6     0.01  -0.06  -0.02     0.15   0.05   0.03     0.01  -0.01  -0.01
  54   6    -0.02  -0.05  -0.01     0.15   0.05   0.03     0.00  -0.00   0.00
  55   6    -0.04  -0.07  -0.01     0.13   0.04   0.03    -0.01  -0.00   0.01
  56   6    -0.07  -0.05  -0.01     0.12   0.05   0.01    -0.01   0.00   0.02
  57   6    -0.07  -0.01  -0.00     0.13   0.06  -0.00    -0.01   0.01   0.01
  58   7    -0.04  -0.01  -0.01     0.15   0.07   0.01    -0.00   0.00   0.00
  59   6    -0.09   0.02   0.00     0.13   0.06  -0.02    -0.01   0.01   0.01
  60   6    -0.08   0.05   0.00     0.12   0.04  -0.01    -0.01   0.01  -0.00
  61   7    -0.05   0.07  -0.01     0.10   0.03  -0.01    -0.00   0.01  -0.01
  62   1    -0.04   0.02   0.00     0.05   0.01  -0.00    -0.00   0.00  -0.00
  63   1    -0.03   0.03  -0.01     0.04  -0.01   0.00    -0.00   0.00  -0.01
  64   1     0.01   0.04  -0.00     0.03   0.00  -0.00    -0.00   0.01   0.01
  65   1     0.02   0.04   0.00     0.04  -0.00  -0.00     0.00   0.01   0.01
  66   1    -0.00   0.02  -0.00     0.02  -0.01   0.01    -0.00   0.00  -0.00
  67   1     0.02   0.02   0.01     0.03  -0.01   0.00     0.00   0.00   0.00
  68   1     0.03  -0.00   0.00     0.02   0.00   0.00     0.00  -0.00  -0.01
  69   1     0.02  -0.02  -0.00     0.03   0.02   0.01     0.00  -0.00  -0.01
  70   1     0.01  -0.02  -0.01     0.04   0.02   0.01     0.00  -0.00  -0.00
  71   1    -0.01  -0.03  -0.01     0.04   0.01   0.01    -0.00  -0.00   0.01
  72   1    -0.03  -0.02  -0.00     0.03   0.01   0.00    -0.00   0.00   0.01
  73   1    -0.01   0.00  -0.00     0.05   0.02  -0.00     0.00   0.00  -0.00
  74   1    -0.03   0.00   0.00     0.04   0.02  -0.01    -0.00   0.00   0.00
  75   6    -0.02  -0.05  -0.07    -0.08  -0.00  -0.02     0.00   0.02  -0.01
  76   6    -0.01  -0.01  -0.06    -0.07   0.01  -0.01     0.00   0.03  -0.02
  77   6    -0.00   0.04  -0.04    -0.07   0.01  -0.00     0.00   0.02  -0.03
  78   6     0.01   0.09  -0.01    -0.07   0.01   0.01    -0.00   0.01  -0.04
  79   6     0.02   0.13   0.02    -0.07   0.00   0.02    -0.00   0.00  -0.04
  80   6     0.03   0.15   0.05    -0.07  -0.01   0.02    -0.00  -0.01  -0.03
  81   6     0.03  -0.18  -0.01     0.07   0.00  -0.00     0.01  -0.03   0.00
  82   6     0.02  -0.14  -0.03     0.07   0.02   0.00     0.01  -0.04  -0.00
  83   6     0.01  -0.08  -0.03     0.07   0.02   0.01     0.01  -0.04  -0.01
  84   6    -0.00   0.01  -0.05     0.07   0.01   0.01     0.00  -0.02  -0.01
  85   6    -0.02   0.06  -0.05     0.07   0.00   0.02     0.00  -0.01  -0.01
  86   6    -0.03   0.12  -0.05     0.08  -0.01   0.01    -0.00   0.00  -0.01
  87   6    -0.02   0.11   0.06     0.02  -0.06  -0.03     0.01   0.25   0.16
  88   6    -0.01   0.15   0.07    -0.01  -0.05   0.00     0.01   0.24   0.15
  89   6     0.01   0.12   0.06    -0.05  -0.03  -0.01     0.00   0.10   0.06
  90   6     0.02   0.14   0.07    -0.07  -0.02   0.01    -0.00  -0.02  -0.01
  91   6     0.04   0.13   0.07    -0.06  -0.04   0.01    -0.00  -0.13  -0.07
  92   6     0.06   0.17   0.08    -0.03  -0.04  -0.01    -0.00  -0.26  -0.15
  93   6     0.06   0.13   0.07    -0.00  -0.07   0.01     0.00  -0.25  -0.14
  94   6     0.05   0.06   0.05    -0.02  -0.09   0.03     0.01  -0.11  -0.06
  95   7     0.04   0.08   0.06    -0.06  -0.07   0.04     0.00  -0.07  -0.03
  96   6     0.06  -0.01   0.03    -0.01  -0.10   0.03     0.01   0.01   0.01
  97   6     0.06  -0.09   0.00     0.00  -0.08   0.02     0.00   0.12   0.08
  98   6     0.07  -0.16  -0.02    -0.02  -0.06  -0.01    -0.01   0.27   0.17
  99   6     0.06  -0.20  -0.03     0.01  -0.03  -0.03    -0.01   0.26   0.16
 100   6     0.04  -0.16  -0.01     0.05  -0.03  -0.01    -0.00   0.11   0.07
 101   7     0.04  -0.10   0.00     0.04  -0.07   0.02     0.00   0.05   0.04
 102   6     0.03  -0.17  -0.02     0.07  -0.01  -0.01     0.01  -0.02   0.00
 103   6     0.01  -0.16  -0.01     0.06  -0.02  -0.02     0.01  -0.12  -0.07
 104   6    -0.01  -0.19  -0.02     0.02  -0.04  -0.01     0.01  -0.25  -0.15
 105   6    -0.02  -0.14  -0.01     0.00  -0.04  -0.05     0.01  -0.23  -0.14
 106   6    -0.01  -0.08   0.00     0.02  -0.03  -0.07     0.00  -0.10  -0.06
 107   7     0.01  -0.11  -0.00     0.05  -0.02  -0.06     0.01  -0.06  -0.03
 108   6    -0.03  -0.02   0.02     0.01  -0.03  -0.09    -0.00   0.01   0.01
 109   6    -0.02   0.05   0.04    -0.00  -0.04  -0.06     0.00   0.11   0.07
 110   7     0.00   0.07   0.05    -0.05  -0.02  -0.05    -0.00   0.05   0.03
 111   1    -0.01   0.03   0.02     0.01  -0.02  -0.01     0.00   0.10   0.06
 112   1    -0.00   0.06   0.03    -0.00  -0.02   0.01     0.00   0.09   0.06
 113   1     0.02   0.06   0.03    -0.01  -0.00  -0.01    -0.00  -0.10  -0.06
 114   1     0.02   0.04   0.02     0.01  -0.02   0.00     0.00  -0.09  -0.05
 115   1     0.01   0.01   0.01    -0.03  -0.03   0.02     0.00   0.01   0.01
 116   1     0.02  -0.00   0.01    -0.01  -0.03   0.01     0.00   0.00   0.01
 117   1     0.02  -0.05  -0.01    -0.01  -0.02  -0.01    -0.00   0.11   0.06
 118   1     0.02  -0.07  -0.01     0.00  -0.00  -0.01    -0.00   0.10   0.06
 119   1    -0.00  -0.07  -0.01     0.01  -0.01   0.00     0.01  -0.10  -0.06
 120   1    -0.01  -0.04  -0.01    -0.01  -0.02  -0.02     0.00  -0.09  -0.06
 121   1     0.00  -0.02   0.00     0.03   0.00  -0.03     0.00   0.01   0.01
 122   1    -0.01  -0.00   0.01     0.01  -0.01  -0.03    -0.00   0.00   0.00
                     13                     14                     15
                        a                      a                      a 
 Frequencies --    41.5116                42.2854                42.5528
 Red. masses --    11.4395                10.8841                10.9819
 Frc consts  --     0.0000                 0.0000                 0.0000
 IR Inten    --    16.5861                10.9182                19.7890
 Raman Activ --     0.0000                 0.0000                 0.0000
 Depolar     --     0.0000                 0.0000                 0.0000
 Atom AN      X      Y      Z        X      Y      Z        X      Y      Z
   1   6     0.02  -0.10   0.02     0.05   0.22  -0.16     0.03   0.08  -0.09
   2   6     0.01  -0.09  -0.00     0.04   0.21  -0.15     0.03   0.09  -0.10
   3   6     0.00  -0.04  -0.02     0.02   0.08  -0.06     0.01   0.03  -0.05
   4   6    -0.00  -0.01  -0.05    -0.00  -0.01   0.01    -0.00  -0.01  -0.02
   5   6    -0.01   0.00  -0.06    -0.02  -0.10   0.08    -0.02  -0.06   0.02
   6   6    -0.01   0.02  -0.07    -0.04  -0.21   0.16    -0.03  -0.12   0.07
   7   6    -0.02   0.01  -0.05    -0.04  -0.19   0.15    -0.04  -0.12   0.07
   8   6    -0.02  -0.02  -0.03    -0.01  -0.08   0.06    -0.02  -0.06   0.03
   9   7    -0.01  -0.02  -0.03    -0.01  -0.05   0.04    -0.01  -0.04   0.01
  10   6    -0.03  -0.04   0.00     0.01   0.02  -0.01    -0.01  -0.01   0.00
  11   6    -0.02  -0.04   0.02     0.02   0.10  -0.08     0.00   0.04  -0.03
  12   6    -0.03  -0.04   0.05     0.05   0.21  -0.16     0.01   0.11  -0.07
  13   6    -0.01  -0.02   0.04     0.04   0.20  -0.15     0.02   0.12  -0.08
  14   6     0.01  -0.00   0.01     0.02   0.08  -0.07     0.01   0.06  -0.04
  15   7     0.01  -0.02   0.00     0.01   0.05  -0.04     0.00   0.03  -0.02
  16   6     0.03   0.03  -0.01    -0.00  -0.01   0.01     0.01   0.02  -0.00
  17   6     0.04   0.03  -0.02    -0.02  -0.10   0.07     0.00  -0.04   0.03
  18   6     0.06   0.06  -0.04    -0.04  -0.20   0.15    -0.00  -0.09   0.08
  19   6     0.06   0.03  -0.02    -0.04  -0.19   0.15    -0.01  -0.10   0.08
  20   6     0.04  -0.00  -0.01    -0.02  -0.09   0.07     0.00  -0.06   0.04
  21   7     0.04   0.00  -0.01    -0.01  -0.05   0.04     0.00  -0.03   0.02
  22   6     0.04  -0.04   0.01     0.00   0.01  -0.00     0.01  -0.02   0.01
  23   6     0.02  -0.06   0.01     0.02   0.10  -0.07     0.02   0.02  -0.04
  24   7     0.01  -0.04  -0.01     0.01   0.04  -0.03     0.01   0.01  -0.02
  25   1     0.01  -0.04   0.01     0.02   0.08  -0.06     0.01   0.03  -0.03
  26   1     0.00  -0.03  -0.00     0.02   0.08  -0.06     0.01   0.04  -0.04
  27   1    -0.00   0.01  -0.03    -0.02  -0.08   0.06    -0.01  -0.04   0.03
  28   1    -0.01   0.00  -0.02    -0.01  -0.07   0.06    -0.01  -0.05   0.03
  29   1    -0.00  -0.01  -0.01     0.00   0.01  -0.01    -0.00   0.00  -0.01
  30   1    -0.01  -0.01   0.00     0.00   0.01  -0.00    -0.01  -0.01   0.00
  31   1    -0.01  -0.02   0.02     0.02   0.08  -0.06     0.00   0.04  -0.03
  32   1    -0.00  -0.00   0.02     0.02   0.07  -0.06     0.01   0.05  -0.03
  33   1     0.01   0.01  -0.00    -0.00  -0.01   0.00     0.00   0.01  -0.00
  34   1     0.02   0.02  -0.01    -0.02  -0.08   0.06    -0.00  -0.03   0.03
  35   1     0.02   0.01  -0.01    -0.02  -0.07   0.06    -0.00  -0.04   0.03
  36   1     0.01  -0.00   0.00     0.00   0.01  -0.00     0.00   0.00  -0.00
  37   1     0.01  -0.02   0.01     0.00   0.00  -0.00     0.00  -0.01   0.00
  38   6     0.06  -0.10  -0.19     0.03  -0.05  -0.14    -0.03   0.05   0.18
  39   6     0.04  -0.08  -0.10     0.03  -0.05  -0.14    -0.04   0.06   0.22
  40   6     0.02  -0.04  -0.01     0.01  -0.02  -0.06    -0.01   0.02   0.11
  41   6    -0.01  -0.01   0.09    -0.00   0.00   0.01     0.00  -0.00   0.03
  42   6    -0.02  -0.01   0.08    -0.01   0.03   0.07     0.02  -0.05  -0.09
  43   6    -0.03  -0.02   0.10    -0.03   0.05   0.14     0.04  -0.10  -0.23
  44   6    -0.03  -0.03   0.01    -0.02   0.05   0.13     0.04  -0.11  -0.26
  45   6    -0.02  -0.04  -0.05    -0.01   0.02   0.06     0.02  -0.06  -0.14
  46   7    -0.01  -0.03  -0.01    -0.01   0.01   0.03     0.01  -0.03  -0.06
  47   6    -0.01  -0.05  -0.13     0.01  -0.00  -0.01    -0.01  -0.02  -0.05
  48   6    -0.01  -0.04  -0.11     0.02  -0.02  -0.07    -0.03   0.03   0.07
  49   6    -0.01  -0.04  -0.13     0.03  -0.05  -0.14    -0.06   0.07   0.21
  50   6    -0.03  -0.01  -0.04     0.03  -0.05  -0.13    -0.07   0.09   0.25
  51   6    -0.04   0.01   0.02     0.02  -0.02  -0.06    -0.04   0.05   0.13
  52   7    -0.03  -0.01  -0.03     0.01  -0.01  -0.03    -0.03   0.02   0.05
  53   6    -0.05   0.05   0.11     0.00   0.00   0.01    -0.03   0.02   0.05
  54   6    -0.04   0.05   0.11    -0.01   0.02   0.07     0.01  -0.02  -0.07
  55   6    -0.03   0.07   0.15    -0.03   0.05   0.14     0.04  -0.06  -0.19
  56   6     0.00   0.03   0.07    -0.03   0.05   0.13     0.05  -0.08  -0.23
  57   6     0.01  -0.01  -0.01    -0.01   0.02   0.06     0.03  -0.05  -0.12
  58   7    -0.01  -0.00   0.03    -0.00   0.02   0.03     0.00  -0.03  -0.06
  59   6     0.04  -0.06  -0.11     0.00   0.00  -0.01     0.02  -0.03  -0.05
  60   6     0.04  -0.08  -0.13     0.01  -0.02  -0.07    -0.01   0.00   0.06
  61   7     0.02  -0.05  -0.04     0.00  -0.01  -0.03     0.00  -0.00   0.03
  62   1     0.02  -0.04  -0.08     0.01  -0.02  -0.06    -0.01   0.02   0.07
  63   1     0.01  -0.02  -0.03     0.01  -0.02  -0.05    -0.02   0.03   0.09
  64   1    -0.01  -0.00   0.05    -0.01   0.02   0.05     0.02  -0.04  -0.08
  65   1    -0.01  -0.01  -0.00    -0.01   0.02   0.05     0.01  -0.04  -0.10
  66   1     0.00  -0.00  -0.01     0.00  -0.00  -0.01    -0.00   0.00   0.01
  67   1    -0.00  -0.02  -0.05     0.00  -0.00  -0.00    -0.00  -0.01  -0.02
  68   1    -0.00  -0.02  -0.06     0.01  -0.02  -0.05    -0.02   0.03   0.08
  69   1    -0.01   0.00  -0.01     0.01  -0.02  -0.05    -0.03   0.03   0.10
  70   1    -0.02   0.02   0.05     0.00   0.00   0.00    -0.01   0.01   0.02
  71   1    -0.01   0.03   0.07    -0.01   0.02   0.05     0.01  -0.02  -0.07
  72   1     0.00   0.01   0.02    -0.01   0.02   0.05     0.02  -0.03  -0.09
  73   1    -0.00  -0.01  -0.01     0.00   0.00  -0.00    -0.00  -0.00   0.01
  74   1     0.02  -0.02  -0.05     0.00   0.00  -0.00     0.01  -0.01  -0.02
  75   6     0.00   0.01  -0.06    -0.00  -0.03   0.02    -0.00   0.00  -0.02
  76   6     0.02   0.06  -0.02    -0.01  -0.03   0.02     0.01   0.03  -0.01
  77   6     0.03   0.10   0.02    -0.01  -0.03   0.02     0.01   0.05   0.01
  78   6     0.04   0.14   0.08    -0.01  -0.02   0.00     0.02   0.06   0.03
  79   6     0.04   0.14   0.11    -0.00  -0.01  -0.00     0.02   0.07   0.04
  80   6     0.04   0.13   0.12    -0.00   0.00  -0.01     0.02   0.06   0.05
  81   6    -0.05   0.14   0.03    -0.00  -0.01  -0.00    -0.01   0.06   0.02
  82   6    -0.06   0.18   0.11    -0.00  -0.01   0.01    -0.02   0.08   0.06
  83   6    -0.06   0.18   0.17    -0.00  -0.01   0.01    -0.02   0.08   0.08
  84   6    -0.05   0.14   0.22    -0.00  -0.00   0.02    -0.02   0.07   0.09
  85   6    -0.04   0.09   0.21    -0.01   0.00   0.02    -0.01   0.04   0.08
  86   6    -0.02   0.02   0.16    -0.01   0.00   0.01    -0.00   0.01   0.06
  87   6     0.04  -0.03   0.01    -0.01   0.04   0.02     0.02   0.02   0.02
  88   6     0.04   0.05   0.06    -0.00   0.04   0.02     0.02   0.06   0.05
  89   6     0.04   0.06   0.07    -0.00   0.02   0.00     0.02   0.04   0.04
  90   6     0.03   0.09   0.09    -0.00   0.01  -0.01     0.02   0.04   0.04
  91   6     0.01   0.05   0.06    -0.00  -0.01  -0.01     0.01   0.01   0.01
  92   6    -0.02   0.03   0.06     0.00  -0.02  -0.02    -0.00  -0.03   0.00
  93   6    -0.04  -0.04  -0.00     0.00  -0.02  -0.02    -0.01  -0.06  -0.03
  94   6    -0.03  -0.05  -0.04     0.00  -0.00  -0.01    -0.01  -0.04  -0.03
  95   7     0.01   0.01  -0.00    -0.00   0.00  -0.01     0.01  -0.01  -0.01
  96   6    -0.04  -0.09  -0.09     0.00   0.01  -0.00    -0.01  -0.05  -0.04
  97   6    -0.03  -0.07  -0.09     0.00   0.01   0.00    -0.01  -0.02  -0.02
  98   6    -0.04  -0.07  -0.09     0.00   0.02   0.01    -0.01   0.00  -0.01
  99   6    -0.04  -0.00  -0.06     0.00   0.02   0.01    -0.01   0.04   0.00
 100   6    -0.04   0.03  -0.04    -0.00   0.00   0.00    -0.01   0.03   0.00
 101   7    -0.04  -0.01  -0.06     0.00   0.00  -0.00    -0.01   0.00  -0.02
 102   6    -0.04   0.07  -0.01    -0.00  -0.01  -0.00    -0.01   0.03   0.00
 103   6    -0.01   0.02  -0.04    -0.00  -0.02  -0.01    -0.00  -0.01  -0.02
 104   6     0.02  -0.01  -0.07    -0.00  -0.04  -0.02     0.01  -0.04  -0.05
 105   6     0.04  -0.08  -0.09    -0.01  -0.03  -0.02     0.02  -0.08  -0.06
 106   6     0.03  -0.09  -0.06    -0.01  -0.01  -0.01     0.01  -0.06  -0.04
 107   7    -0.01  -0.03  -0.04    -0.00  -0.01  -0.01     0.00  -0.02  -0.02
 108   6     0.04  -0.11  -0.05    -0.01   0.01   0.00     0.02  -0.05  -0.03
 109   6     0.03  -0.06  -0.01    -0.01   0.02   0.01     0.02  -0.01   0.00
 110   7     0.04  -0.00   0.03    -0.00   0.01   0.00     0.02   0.01   0.01
 111   1     0.01  -0.02  -0.00    -0.00   0.02   0.01     0.01   0.01   0.01
 112   1     0.01   0.03   0.03    -0.00   0.02   0.01     0.01   0.03   0.02
 113   1    -0.01   0.02   0.03     0.00  -0.01  -0.01    -0.00  -0.01   0.00
 114   1    -0.02  -0.02  -0.01     0.00  -0.01  -0.01    -0.01  -0.02  -0.01
 115   1     0.01   0.00  -0.01    -0.00   0.00  -0.00     0.00   0.00  -0.00
 116   1    -0.01  -0.04  -0.03     0.00   0.00  -0.00    -0.00  -0.02  -0.01
 117   1    -0.01  -0.03  -0.03     0.00   0.01   0.01    -0.00  -0.00  -0.01
 118   1    -0.01   0.01  -0.01     0.00   0.01   0.00    -0.00   0.02   0.01
 119   1     0.01   0.01  -0.02    -0.00  -0.01  -0.01     0.00  -0.01  -0.02
 120   1     0.02  -0.04  -0.03    -0.00  -0.01  -0.01     0.01  -0.03  -0.02
 121   1    -0.01  -0.01  -0.00    -0.00   0.00  -0.00    -0.00  -0.00   0.00
 122   1     0.01  -0.04  -0.02    -0.00   0.00   0.00     0.01  -0.02  -0.01
                     16                     17                     18
                        a                      a                      a 
 Frequencies --    47.9014                52.9357                56.6516
 Red. masses --    11.4158                11.7595                11.3121
 Frc consts  --     0.0000                 0.0000                 0.0000
 IR Inten    --     7.7677                 2.1417                51.6306
 Raman Activ --     0.0000                 0.0000                 0.0000
 Depolar     --     0.0000                 0.0000                 0.0000
 Atom AN      X      Y      Z        X      Y      Z        X      Y      Z
   1   6    -0.03  -0.09   0.04    -0.07   0.02  -0.05    -0.04  -0.01   0.05
   2   6     0.00   0.02  -0.05    -0.03  -0.02   0.01    -0.00   0.06   0.01
   3   6     0.01   0.05  -0.07     0.02  -0.06  -0.00     0.02   0.07  -0.02
   4   6     0.03   0.10  -0.11     0.05  -0.08   0.02     0.05   0.10  -0.04
   5   6     0.00   0.03  -0.05     0.03  -0.04   0.02     0.04   0.07  -0.01
   6   6    -0.03  -0.02  -0.01    -0.04  -0.02  -0.02     0.03   0.04   0.01
   7   6    -0.06  -0.12   0.09    -0.07   0.08   0.00     0.01  -0.02   0.07
   8   6    -0.05  -0.11   0.10    -0.02   0.11   0.05     0.01  -0.02   0.08
   9   7    -0.01  -0.02   0.02     0.04   0.04   0.06     0.03   0.03   0.03
  10   6    -0.06  -0.14   0.13    -0.02   0.15   0.05     0.00  -0.07   0.10
  11   6    -0.04  -0.06   0.07    -0.05   0.10   0.05    -0.00  -0.04   0.06
  12   6    -0.03  -0.02   0.03    -0.04   0.06   0.01     0.01  -0.05   0.03
  13   6    -0.01   0.10  -0.06    -0.10  -0.00   0.02    -0.00   0.02  -0.04
  14   6    -0.01   0.11  -0.06    -0.15   0.02   0.06    -0.02   0.05  -0.04
  15   7    -0.03   0.02   0.01    -0.13   0.09   0.08    -0.02   0.02   0.02
  16   6    -0.00   0.16  -0.10    -0.18  -0.01   0.06    -0.03   0.09  -0.07
  17   6    -0.01   0.08  -0.05    -0.15   0.01   0.03    -0.04   0.05  -0.04
  18   6     0.00   0.05  -0.02    -0.08   0.02   0.04    -0.04   0.03  -0.02
  19   6    -0.01  -0.07   0.05    -0.03   0.02  -0.05    -0.05  -0.04   0.02
  20   6    -0.03  -0.10   0.06    -0.08  -0.00  -0.10    -0.05  -0.06   0.03
  21   7    -0.03  -0.01  -0.00    -0.17  -0.01  -0.06    -0.06   0.00  -0.01
  22   6    -0.04  -0.17   0.09    -0.07   0.00  -0.15    -0.06  -0.09   0.06
  23   6    -0.03  -0.11   0.05    -0.05  -0.01  -0.10    -0.04  -0.04   0.04
  24   7    -0.00  -0.03  -0.02     0.00  -0.06  -0.08     0.00   0.01  -0.00
  25   1    -0.01  -0.04   0.02    -0.03   0.02  -0.02    -0.02  -0.01   0.03
  26   1     0.00   0.02  -0.02    -0.01  -0.00   0.02     0.00   0.03   0.00
  27   1    -0.01  -0.00  -0.01    -0.02  -0.02  -0.01     0.01   0.02  -0.00
  28   1    -0.03  -0.05   0.04    -0.04   0.03  -0.01    -0.00  -0.02   0.03
  29   1     0.01   0.00   0.01     0.04   0.02   0.03     0.02   0.01   0.01
  30   1    -0.02  -0.06   0.05    -0.00   0.05   0.01     0.00  -0.03   0.04
  31   1    -0.01  -0.02   0.02     0.00   0.02  -0.00     0.01  -0.03   0.02
  32   1     0.00   0.05  -0.03    -0.03  -0.02   0.00     0.00   0.01  -0.02
  33   1     0.00   0.07  -0.04    -0.05  -0.01   0.02    -0.01   0.04  -0.03
  34   1     0.01   0.03  -0.01    -0.02   0.01   0.03    -0.01   0.02  -0.01
  35   1    -0.00  -0.04   0.03     0.01   0.01  -0.02    -0.01  -0.02   0.02
  36   1    -0.01  -0.00  -0.00    -0.07  -0.01  -0.03    -0.02  -0.00  -0.01
  37   1    -0.02  -0.07   0.04    -0.02   0.01  -0.05    -0.02  -0.04   0.03
  38   6    -0.02  -0.00   0.05    -0.06  -0.05  -0.00    -0.01  -0.02  -0.07
  39   6    -0.00  -0.02  -0.02    -0.03   0.01  -0.02    -0.02   0.04   0.05
  40   6     0.01  -0.02  -0.03     0.04  -0.00   0.01    -0.02   0.05   0.09
  41   6     0.02  -0.03  -0.06     0.07   0.02   0.01    -0.02   0.07   0.14
  42   6     0.01  -0.01  -0.02     0.04   0.03   0.00    -0.01   0.05   0.08
  43   6    -0.02  -0.01   0.02    -0.02  -0.01   0.01    -0.00   0.03   0.03
  44   6    -0.05   0.02   0.07    -0.08   0.02  -0.01     0.01  -0.01  -0.08
  45   6    -0.04   0.04   0.06    -0.06   0.09  -0.04     0.02  -0.01  -0.10
  46   7    -0.01   0.02   0.01     0.01   0.10  -0.03     0.00   0.03   0.01
  47   6    -0.05   0.05   0.08    -0.08   0.10  -0.05     0.03  -0.03  -0.16
  48   6    -0.04   0.03   0.03    -0.09   0.06  -0.04     0.01  -0.02  -0.09
  49   6    -0.03   0.01   0.01    -0.05   0.02  -0.02     0.02  -0.02  -0.07
  50   6    -0.02  -0.03  -0.06    -0.08  -0.04  -0.01    -0.01   0.01   0.05
  51   6    -0.03  -0.03  -0.06    -0.15  -0.02  -0.03    -0.04   0.02   0.08
  52   7    -0.05   0.01  -0.02    -0.16   0.04  -0.05    -0.02   0.01  -0.00
  53   6    -0.03  -0.04  -0.09    -0.17  -0.05  -0.02    -0.05   0.04   0.14
  54   6    -0.03  -0.03  -0.05    -0.15  -0.05  -0.01    -0.04   0.02   0.08
  55   6    -0.02  -0.01  -0.03    -0.10  -0.01  -0.01    -0.03   0.01   0.04
  56   6    -0.02   0.01   0.05    -0.04  -0.04   0.01     0.00  -0.04  -0.08
  57   6    -0.03  -0.01   0.06    -0.05  -0.11   0.03     0.00  -0.05  -0.09
  58   7    -0.04  -0.03   0.01    -0.13  -0.12   0.02    -0.02  -0.02   0.00
  59   6    -0.03  -0.00   0.10    -0.04  -0.13   0.04     0.02  -0.07  -0.15
  60   6    -0.02  -0.01   0.06    -0.02  -0.09   0.02     0.00  -0.03  -0.08
  61   7     0.00  -0.02   0.02     0.04  -0.07   0.03    -0.00   0.01   0.02
  62   1    -0.01   0.00   0.02    -0.03  -0.02  -0.00    -0.00  -0.01  -0.04
  63   1    -0.00  -0.00  -0.02    -0.01   0.01  -0.01    -0.01   0.02   0.03
  64   1    -0.00  -0.01   0.00    -0.01  -0.02   0.01    -0.00   0.01   0.02
  65   1    -0.02   0.01   0.03    -0.04   0.00  -0.00     0.01  -0.01  -0.04
  66   1     0.00   0.01  -0.00     0.02   0.05  -0.01     0.00   0.01   0.00
  67   1    -0.02   0.02   0.03    -0.02   0.03  -0.01     0.02  -0.02  -0.07
  68   1    -0.01   0.01   0.01     0.00   0.01  -0.00     0.01  -0.01  -0.04
  69   1    -0.00  -0.01  -0.03    -0.02  -0.02   0.00    -0.01   0.01   0.03
  70   1    -0.01  -0.02  -0.04    -0.05  -0.01  -0.01    -0.02   0.02   0.06
  71   1    -0.01  -0.00  -0.02    -0.03   0.01  -0.01    -0.01   0.01   0.02
  72   1    -0.00   0.01   0.02     0.00  -0.01   0.01     0.01  -0.02  -0.04
  73   1    -0.01  -0.01   0.00    -0.05  -0.06   0.01    -0.01  -0.01   0.00
  74   1    -0.01   0.00   0.04    -0.01  -0.04   0.01     0.01  -0.03  -0.07
  75   6     0.05   0.18  -0.16     0.05  -0.11   0.05     0.05   0.12  -0.06
  76   6     0.06   0.25  -0.17     0.05  -0.10   0.07     0.03   0.06  -0.12
  77   6     0.07   0.25  -0.14     0.06  -0.08   0.07     0.01  -0.02  -0.15
  78   6     0.06   0.20  -0.06     0.07  -0.05   0.05    -0.01  -0.12  -0.16
  79   6     0.05   0.12  -0.01     0.07  -0.02   0.03    -0.01  -0.17  -0.13
  80   6     0.04   0.01   0.06     0.07   0.01  -0.01    -0.01  -0.18  -0.07
  81   6     0.01   0.06   0.01     0.07   0.03   0.02     0.04  -0.13  -0.12
  82   6     0.02   0.03  -0.05     0.07   0.03   0.03     0.03  -0.12  -0.04
  83   6     0.02   0.01  -0.10     0.07   0.02   0.03     0.02  -0.08   0.03
  84   6     0.03  -0.02  -0.13     0.07   0.03   0.03    -0.00  -0.01   0.13
  85   6     0.03  -0.04  -0.14     0.07   0.03   0.02    -0.02   0.04   0.18
  86   6     0.03  -0.04  -0.11     0.07   0.03   0.01    -0.03   0.08   0.19
  87   6     0.05  -0.13  -0.02     0.08  -0.01  -0.03     0.04   0.07   0.08
  88   6     0.05  -0.12   0.00     0.08  -0.00  -0.02     0.03  -0.04   0.02
  89   6     0.04  -0.07   0.03     0.08   0.01  -0.02     0.01  -0.08  -0.01
  90   6     0.03  -0.05   0.05     0.08   0.01  -0.02    -0.01  -0.13  -0.04
  91   6     0.03  -0.05   0.04     0.08  -0.00  -0.02    -0.01  -0.07  -0.00
  92   6     0.01  -0.07   0.04     0.09  -0.02  -0.03    -0.02  -0.00   0.04
  93   6    -0.01  -0.08   0.02     0.10  -0.03  -0.03    -0.02   0.10   0.09
  94   6     0.00  -0.06   0.01     0.09  -0.02  -0.02    -0.01   0.09   0.07
  95   7     0.02  -0.05   0.02     0.09  -0.00  -0.01    -0.01  -0.01   0.02
  96   6    -0.00  -0.04   0.00     0.09  -0.01  -0.02    -0.02   0.13   0.08
  97   6    -0.00   0.00   0.02     0.09   0.00  -0.01    -0.01   0.06   0.02
  98   6    -0.01   0.03   0.03     0.09   0.02   0.01    -0.02   0.05  -0.01
  99   6    -0.01   0.06   0.04     0.09   0.03   0.02     0.00  -0.05  -0.08
 100   6     0.00   0.05   0.03     0.08   0.02   0.01     0.02  -0.08  -0.08
 101   7     0.00   0.02   0.03     0.09   0.01  -0.00     0.02  -0.02  -0.03
 102   6     0.01   0.06   0.04     0.08   0.03   0.02     0.03  -0.11  -0.11
 103   6     0.02   0.06   0.04     0.08   0.02   0.01     0.04  -0.06  -0.07
 104   6     0.04   0.09   0.05     0.08   0.02   0.01     0.05  -0.01  -0.05
 105   6     0.06   0.05   0.04     0.08   0.01   0.00     0.05   0.08   0.02
 106   6     0.05   0.00   0.03     0.08   0.00  -0.00     0.04   0.08   0.03
 107   7     0.03   0.02   0.04     0.09   0.01   0.00     0.04  -0.01  -0.03
 108   6     0.06  -0.06   0.01     0.08  -0.01  -0.02     0.04   0.13   0.08
 109   6     0.05  -0.09   0.00     0.08  -0.00  -0.02     0.03   0.07   0.06
 110   7     0.04  -0.07   0.02     0.09   0.01  -0.02     0.01  -0.02   0.01
 111   1     0.02  -0.05  -0.01     0.02  -0.01  -0.01     0.02   0.04   0.04
 112   1     0.01  -0.04  -0.00     0.02  -0.00  -0.01     0.01  -0.02   0.00
 113   1     0.00  -0.02   0.01     0.03  -0.00  -0.01    -0.01  -0.01   0.01
 114   1    -0.01  -0.03   0.00     0.03  -0.01  -0.01    -0.01   0.05   0.04
 115   1     0.01  -0.01   0.00     0.02   0.00  -0.00    -0.00  -0.01   0.00
 116   1    -0.00  -0.01  -0.00     0.03  -0.01  -0.01    -0.01   0.06   0.04
 117   1    -0.00   0.01   0.01     0.03   0.00   0.00    -0.01   0.03   0.01
 118   1    -0.00   0.03   0.01     0.03   0.01   0.01     0.00  -0.03  -0.03
 119   1     0.01   0.04   0.02     0.02   0.01   0.01     0.01  -0.01  -0.02
 120   1     0.02   0.02   0.01     0.02   0.00   0.00     0.01   0.04   0.02
 121   1     0.00  -0.00   0.01     0.02   0.00  -0.00     0.01  -0.00  -0.01
 122   1     0.02  -0.02   0.00     0.02  -0.00  -0.01     0.02   0.06   0.04
                     19                     20                     21
                        a                      a                      a 
 Frequencies --    66.3206                72.4744                83.2797
 Red. masses --    11.8116                11.4426                11.4856
 Frc consts  --     0.0000                 0.0000                 0.0000
 IR Inten    --     6.0227                53.1890                30.3254
 Raman Activ --     0.0000                 0.0000                 0.0000
 Depolar     --     0.0000                 0.0000                 0.0000
 Atom AN      X      Y      Z        X      Y      Z        X      Y      Z
   1   6    -0.03  -0.02  -0.04    -0.02   0.02   0.04     0.01  -0.02  -0.02
   2   6     0.03  -0.01   0.00     0.01   0.06   0.03     0.02   0.07  -0.09
   3   6     0.08  -0.05  -0.02     0.04   0.06   0.00     0.02   0.10  -0.11
   4   6     0.11  -0.05  -0.01     0.05   0.07   0.00     0.02   0.10  -0.11
   5   6     0.09  -0.03   0.00     0.05   0.06   0.01     0.02   0.10  -0.11
   6   6     0.01  -0.02  -0.02     0.04   0.05   0.02     0.00   0.06  -0.08
   7   6    -0.03   0.03   0.03     0.03   0.02   0.05    -0.02  -0.01  -0.02
   8   6     0.03   0.06   0.08     0.04   0.01   0.06    -0.02  -0.02  -0.01
   9   7     0.11   0.03   0.07     0.05   0.05   0.03     0.01   0.08  -0.09
  10   6     0.02   0.09   0.10     0.03  -0.02   0.07    -0.04  -0.12   0.08
  11   6    -0.01   0.07   0.08     0.02  -0.02   0.05    -0.03  -0.08   0.06
  12   6     0.01   0.03   0.02     0.02  -0.05   0.03    -0.05  -0.16   0.13
  13   6    -0.05   0.01  -0.00     0.01  -0.01  -0.02    -0.01  -0.02   0.03
  14   6    -0.11   0.04   0.03    -0.01   0.03  -0.02     0.02   0.10  -0.07
  15   7    -0.08   0.08   0.09    -0.01   0.03   0.02     0.01   0.07  -0.05
  16   6    -0.14   0.03   0.02    -0.03   0.05  -0.05     0.04   0.17  -0.12
  17   6    -0.12   0.02   0.01    -0.04   0.03  -0.03     0.03   0.10  -0.07
  18   6    -0.04   0.02   0.02    -0.03   0.01  -0.01     0.01  -0.02   0.02
  19   6     0.01  -0.02  -0.04    -0.04  -0.04   0.02    -0.01  -0.15   0.12
  20   6    -0.05  -0.05  -0.09    -0.04  -0.04   0.01    -0.01  -0.09   0.07
  21   7    -0.13  -0.03  -0.07    -0.05   0.01  -0.02     0.02   0.06  -0.05
  22   6    -0.04  -0.07  -0.12    -0.05  -0.05   0.02    -0.01  -0.13   0.09
  23   6    -0.01  -0.06  -0.09    -0.02  -0.01   0.02     0.00  -0.03  -0.00
  24   7     0.06  -0.08  -0.08     0.02   0.02  -0.00     0.02   0.07  -0.08
  25   1    -0.02   0.00  -0.01    -0.01   0.00   0.02     0.00  -0.02   0.00
  26   1     0.01   0.00   0.01     0.00   0.03   0.01     0.01   0.03  -0.04
  27   1    -0.00  -0.02  -0.02     0.01   0.02   0.00     0.00   0.02  -0.03
  28   1    -0.03   0.02   0.01     0.01   0.00   0.02    -0.01  -0.02   0.01
  29   1     0.06   0.01   0.04     0.02   0.01   0.01     0.01   0.02  -0.02
  30   1     0.01   0.03   0.03     0.01  -0.02   0.03    -0.02  -0.06   0.05
  31   1     0.02   0.01   0.00     0.01  -0.03   0.01    -0.02  -0.08   0.07
  32   1    -0.02  -0.01  -0.01     0.00  -0.01  -0.01    -0.00  -0.01   0.01
  33   1    -0.04   0.01   0.01    -0.01   0.02  -0.02     0.01   0.06  -0.04
  34   1    -0.00   0.02   0.02    -0.01   0.01  -0.00     0.00  -0.00   0.01
  35   1     0.02  -0.01  -0.01    -0.01  -0.02   0.01    -0.01  -0.08   0.06
  36   1    -0.07  -0.02  -0.04    -0.02   0.00  -0.01     0.01   0.03  -0.02
  37   1    -0.01  -0.02  -0.03    -0.02  -0.02   0.01    -0.01  -0.07   0.05
  38   6     0.01   0.05  -0.01     0.03  -0.02   0.04    -0.02   0.03  -0.01
  39   6    -0.03  -0.01   0.01     0.04  -0.06  -0.06    -0.01   0.02  -0.04
  40   6    -0.09  -0.00  -0.02     0.04  -0.07  -0.09    -0.00   0.01  -0.06
  41   6    -0.12  -0.03  -0.01     0.04  -0.08  -0.11    -0.00   0.02  -0.06
  42   6    -0.09  -0.03  -0.01     0.03  -0.07  -0.09    -0.00   0.01  -0.06
  43   6    -0.03   0.01  -0.01     0.01  -0.07  -0.05     0.01   0.03  -0.04
  44   6     0.04  -0.03   0.02    -0.02  -0.03   0.03     0.01   0.03  -0.01
  45   6     0.02  -0.10   0.04    -0.02  -0.01   0.04     0.01   0.02  -0.00
  46   7    -0.07  -0.12   0.02     0.02  -0.04  -0.05     0.00   0.01  -0.05
  47   6     0.04  -0.13   0.05    -0.05   0.03   0.12     0.01   0.03   0.04
  48   6     0.05  -0.09   0.04    -0.03   0.03   0.08     0.01   0.01   0.03
  49   6     0.01  -0.03   0.01    -0.04   0.04   0.10     0.01   0.02   0.07
  50   6     0.04   0.03   0.00    -0.02   0.00  -0.01     0.01  -0.00   0.02
  51   6     0.11   0.01   0.02     0.00  -0.02  -0.08     0.02  -0.02  -0.03
  52   7     0.13  -0.06   0.05    -0.01  -0.01  -0.03     0.02  -0.01  -0.03
  53   6     0.14   0.04   0.02     0.02  -0.04  -0.14     0.02  -0.03  -0.06
  54   6     0.11   0.04   0.01     0.02  -0.02  -0.08     0.00  -0.02  -0.04
  55   6     0.05  -0.01   0.01     0.02   0.01  -0.01    -0.01  -0.01   0.01
  56   6    -0.02   0.03  -0.02     0.00   0.04   0.10    -0.03   0.01   0.06
  57   6    -0.00   0.11  -0.04     0.00   0.02   0.09    -0.02   0.01   0.03
  58   7     0.09   0.12  -0.03     0.01  -0.01  -0.02    -0.00  -0.01  -0.03
  59   6    -0.02   0.13  -0.05     0.00   0.03   0.13    -0.03   0.03   0.04
  60   6    -0.03   0.09  -0.04     0.02  -0.01   0.05    -0.02   0.02  -0.01
  61   7    -0.10   0.07  -0.04     0.03  -0.05  -0.04    -0.01   0.01  -0.05
  62   1     0.02   0.02   0.00     0.01  -0.00   0.03    -0.01   0.01   0.00
  63   1    -0.00  -0.02   0.01     0.01  -0.02  -0.03    -0.00   0.01  -0.02
  64   1    -0.01   0.02  -0.01     0.01  -0.03  -0.02     0.00   0.01  -0.01
  65   1     0.03  -0.00   0.01    -0.01  -0.00   0.03     0.00   0.01   0.00
  66   1    -0.04  -0.06   0.01     0.01  -0.01  -0.01    -0.00  -0.00  -0.01
  67   1     0.01  -0.04   0.01    -0.02   0.02   0.06     0.00   0.01   0.02
  68   1    -0.01  -0.01   0.00    -0.02   0.02   0.05    -0.00   0.01   0.04
  69   1     0.01   0.02  -0.00    -0.00  -0.00  -0.01     0.00  -0.00   0.01
  70   1     0.04   0.01   0.01     0.01  -0.01  -0.05     0.01  -0.01  -0.02
  71   1     0.01  -0.02   0.01     0.01   0.00  -0.01    -0.00  -0.00   0.01
  72   1    -0.02   0.00  -0.01    -0.00   0.02   0.05    -0.01   0.01   0.03
  73   1     0.05   0.06  -0.01     0.00  -0.01  -0.01     0.00  -0.00  -0.01
  74   1    -0.00   0.04  -0.02    -0.00   0.02   0.06    -0.01   0.01   0.02
  75   6     0.11  -0.04  -0.00     0.04   0.04  -0.01     0.00   0.01  -0.01
  76   6     0.12  -0.02   0.01     0.00  -0.09  -0.11    -0.01  -0.11   0.20
  77   6     0.13  -0.00   0.02    -0.02  -0.17  -0.15    -0.02  -0.16   0.30
  78   6     0.13   0.01   0.02    -0.03  -0.23  -0.18    -0.01  -0.15   0.30
  79   6     0.13   0.01   0.01    -0.02  -0.20  -0.15    -0.01  -0.10   0.22
  80   6     0.12   0.00   0.00    -0.01  -0.09  -0.06    -0.00   0.02   0.02
  81   6    -0.12  -0.02  -0.01    -0.03   0.11   0.07     0.01  -0.02   0.01
  82   6    -0.12  -0.04  -0.00    -0.05   0.23   0.10     0.02  -0.11   0.12
  83   6    -0.12  -0.05  -0.00    -0.05   0.26   0.10     0.02  -0.14   0.16
  84   6    -0.12  -0.05  -0.01    -0.04   0.20   0.05     0.02  -0.13   0.16
  85   6    -0.12  -0.05  -0.01    -0.01   0.10  -0.02     0.01  -0.09   0.11
  86   6    -0.12  -0.03  -0.01     0.03  -0.04  -0.08    -0.00   0.01  -0.00
  87   6    -0.01  -0.02   0.02    -0.00   0.12   0.09    -0.01   0.01  -0.06
  88   6     0.03  -0.00  -0.02     0.00   0.11   0.08    -0.00   0.02  -0.05
  89   6     0.09  -0.02   0.01     0.00   0.04   0.03     0.00   0.04  -0.04
  90   6     0.12  -0.01  -0.00     0.01  -0.00   0.00    -0.01   0.04  -0.04
  91   6     0.10   0.00  -0.02     0.01   0.04   0.03    -0.01   0.03  -0.04
  92   6     0.03  -0.01   0.01     0.00   0.10   0.06     0.00   0.01  -0.06
  93   6    -0.02   0.02  -0.04    -0.00   0.12   0.07     0.01  -0.01  -0.06
  94   6     0.01   0.05  -0.09     0.00   0.06   0.03     0.01   0.00  -0.04
  95   7     0.09   0.04  -0.09     0.01   0.04   0.02    -0.01   0.03  -0.04
  96   6     0.00   0.08  -0.11    -0.00   0.00  -0.01     0.01  -0.00  -0.03
  97   6    -0.02   0.06  -0.07    -0.00  -0.06  -0.03     0.01   0.01  -0.02
  98   6     0.01   0.04  -0.02     0.01  -0.14  -0.07     0.02   0.02  -0.02
  99   6    -0.03   0.01   0.01    -0.00  -0.11  -0.05     0.02   0.02  -0.01
 100   6    -0.09   0.01  -0.02    -0.01  -0.03  -0.01     0.02   0.02  -0.02
 101   7    -0.09   0.04  -0.08    -0.01  -0.02  -0.01     0.02   0.02  -0.02
 102   6    -0.12  -0.00  -0.01    -0.02   0.02   0.02     0.01   0.01  -0.01
 103   6    -0.10  -0.00   0.01    -0.01  -0.03  -0.01    -0.01   0.02  -0.02
 104   6    -0.03   0.03  -0.01    -0.00  -0.10  -0.06    -0.01   0.02  -0.01
 105   6     0.02   0.01   0.05     0.00  -0.14  -0.08    -0.02   0.03  -0.02
 106   6    -0.01  -0.04   0.10    -0.00  -0.08  -0.03    -0.01   0.03  -0.03
 107   7    -0.09  -0.04   0.08    -0.01  -0.04  -0.01    -0.01   0.03  -0.03
 108   6    -0.00  -0.05   0.12    -0.01  -0.02   0.01    -0.01   0.02  -0.04
 109   6     0.02  -0.05   0.08    -0.00   0.05   0.05    -0.01   0.02  -0.05
 110   7     0.09  -0.05   0.07     0.00   0.02   0.03    -0.00   0.04  -0.04
 111   1    -0.02  -0.00   0.01    -0.00   0.05   0.04    -0.00  -0.00  -0.02
 112   1     0.01   0.01  -0.02     0.00   0.04   0.03    -0.00   0.00  -0.02
[...]
 IR Inten    --  1262.1061                98.8719              2823.2503
 Raman Activ --     0.0000                 0.0000                 0.0000
 Depolar     --     0.0000                 0.0000                 0.0000
 Atom AN      X      Y      Z        X      Y      Z        X      Y      Z
   1   6    -0.00  -0.00  -0.00    -0.00  -0.00  -0.00     0.00  -0.00  -0.00
   2   6     0.00  -0.00  -0.00    -0.00   0.00   0.00    -0.00   0.00   0.00
   3   6     0.00  -0.00  -0.00    -0.00   0.00   0.00    -0.00   0.00   0.00
   4   6     0.00  -0.00   0.00    -0.00  -0.00   0.00    -0.00  -0.00  -0.00
   5   6     0.00   0.00   0.00     0.00  -0.00  -0.00     0.00  -0.00  -0.00
   6   6     0.00  -0.00   0.00     0.00   0.00   0.00     0.00   0.00   0.00
   7   6     0.00   0.00   0.00    -0.00   0.00  -0.00    -0.00   0.00   0.00
   8   6    -0.00   0.00   0.00     0.00  -0.00  -0.00     0.00  -0.00  -0.00
   9   7    -0.00   0.00   0.00     0.00  -0.00  -0.00     0.12  -0.15  -0.17
  10   6    -0.00  -0.00  -0.00    -0.00  -0.00  -0.00     0.00  -0.00  -0.00
  11   6    -0.00  -0.00  -0.00     0.00  -0.00  -0.00    -0.00   0.00   0.00
  12   6     0.00  -0.00  -0.00     0.00   0.00   0.00    -0.00  -0.00  -0.00
  13   6    -0.00   0.00   0.00     0.00  -0.00  -0.00    -0.00   0.00   0.00
  14   6     0.00  -0.00  -0.00    -0.00   0.00   0.00    -0.00   0.00   0.00
  15   7    -0.00   0.00  -0.00    -0.00   0.00   0.00    -0.00  -0.00  -0.00
  16   6    -0.00   0.00   0.00     0.00  -0.00  -0.00     0.00  -0.00  -0.00
  17   6    -0.00   0.00   0.00     0.00  -0.00  -0.00     0.00  -0.00  -0.00
  18   6    -0.00  -0.00  -0.00     0.00  -0.00   0.00     0.00   0.00   0.00
  19   6     0.00   0.00   0.00    -0.00  -0.00  -0.00    -0.00  -0.00  -0.00
  20   6    -0.00   0.00   0.00     0.00  -0.00   0.00    -0.00  -0.00  -0.00
  21   7    -0.00   0.00   0.00     0.00  -0.00  -0.00     0.02  -0.03  -0.03
  22   6     0.00   0.00   0.00    -0.00  -0.00  -0.00     0.00  -0.00  -0.00
  23   6     0.00  -0.00  -0.00     0.00  -0.00  -0.00    -0.00  -0.00  -0.00
  24   7    -0.00  -0.00   0.00     0.00   0.00   0.00     0.00   0.00   0.00
  25   1     0.00   0.00   0.00     0.00   0.00   0.00     0.00   0.00   0.00
  26   1    -0.00   0.00   0.00     0.00  -0.00   0.00     0.00  -0.00  -0.00
  27   1    -0.00   0.00   0.00     0.00  -0.00   0.00    -0.00   0.00   0.00
  28   1    -0.00  -0.00  -0.00     0.00   0.00   0.00     0.00   0.00   0.00
  29   1     0.00  -0.00  -0.00    -0.00   0.00   0.00    -0.45   0.56   0.61
  30   1     0.00   0.00   0.00     0.00   0.00   0.00     0.00   0.00   0.01
  31   1     0.00   0.00   0.00    -0.00  -0.00  -0.00     0.00   0.00   0.00
  32   1     0.00  -0.00   0.00    -0.00   0.00   0.00     0.00  -0.00  -0.00
  33   1     0.00  -0.00  -0.00    -0.00   0.00   0.00    -0.00   0.00  -0.00
  34   1     0.00  -0.00  -0.00    -0.00   0.00   0.00    -0.00   0.00   0.00
  35   1    -0.00  -0.00  -0.00     0.00   0.00   0.00     0.00   0.00   0.00
  36   1     0.00  -0.00  -0.00    -0.00   0.00   0.00    -0.09   0.11   0.12
  37   1    -0.00  -0.00  -0.00     0.00   0.00   0.00     0.00   0.00   0.00
  38   6    -0.00   0.00  -0.00     0.00   0.00  -0.00     0.00  -0.00  -0.00
  39   6     0.00  -0.00   0.00     0.00   0.00   0.00     0.00   0.00  -0.00
  40   6     0.00  -0.00   0.00     0.00  -0.00   0.00     0.00  -0.00   0.00
  41   6    -0.00  -0.00   0.00    -0.00  -0.00  -0.00     0.00   0.00   0.00
  42   6     0.00   0.00  -0.00    -0.00   0.00  -0.00    -0.00  -0.00  -0.00
  43   6     0.00  -0.00   0.00     0.00  -0.00   0.00     0.00  -0.00  -0.00
  44   6     0.00   0.00  -0.00     0.00  -0.00   0.00    -0.00   0.00  -0.00
  45   6    -0.00   0.00  -0.00    -0.00   0.00  -0.00    -0.00  -0.00  -0.00
  46   7    -0.00   0.00  -0.00    -0.00   0.00  -0.00    -0.00   0.00  -0.00
  47   6    -0.00   0.00  -0.00     0.00  -0.00   0.00     0.00   0.00  -0.00
  48   6     0.00  -0.00   0.00     0.00  -0.00   0.00    -0.00   0.00  -0.00
  49   6     0.00  -0.00   0.00     0.00  -0.00   0.00     0.00   0.00  -0.00
  50   6    -0.00  -0.00   0.00    -0.00  -0.00  -0.00     0.00   0.00  -0.00
  51   6     0.00  -0.00   0.00    -0.00  -0.00   0.00     0.00  -0.00  -0.00
  52   7    -0.00   0.00  -0.00     0.00   0.00   0.00    -0.00  -0.00  -0.00
  53   6    -0.00  -0.00  -0.00    -0.00  -0.00  -0.00     0.00   0.00  -0.00
  54   6    -0.00  -0.00  -0.00    -0.00   0.00  -0.00    -0.00  -0.00  -0.00
  55   6    -0.00  -0.00  -0.00    -0.00  -0.00  -0.00     0.00  -0.00  -0.00
  56   6     0.00   0.00  -0.00    -0.00   0.00  -0.00     0.00  -0.00  -0.00
  57   6    -0.00   0.00  -0.00    -0.00   0.00  -0.00    -0.00  -0.00  -0.00
  58   7    -0.00   0.00  -0.00     0.00  -0.00   0.00    -0.00   0.00  -0.00
  59   6    -0.00   0.00  -0.00    -0.00   0.00  -0.00     0.00  -0.00  -0.00
  60   6     0.00  -0.00   0.00     0.00  -0.00   0.00    -0.00  -0.00  -0.00
  61   7    -0.00   0.00  -0.00    -0.00  -0.00   0.00     0.00  -0.00  -0.00
  62   1    -0.00  -0.00   0.00     0.00  -0.00   0.00    -0.00  -0.00  -0.00
  63   1    -0.00  -0.00   0.00    -0.00  -0.00  -0.00    -0.00  -0.00  -0.00
  64   1    -0.00  -0.00  -0.00    -0.00  -0.00  -0.00    -0.00  -0.00   0.00
  65   1     0.00  -0.00   0.00    -0.00   0.00  -0.00     0.00  -0.00   0.00
  66   1     0.00  -0.00   0.00     0.00  -0.00   0.00     0.00  -0.00   0.00
  67   1     0.00  -0.00   0.00    -0.00   0.00  -0.00     0.00  -0.00   0.00
  68   1    -0.00   0.00  -0.00    -0.00   0.00  -0.00     0.00  -0.00   0.00
  69   1     0.00   0.00  -0.00     0.00   0.00   0.00    -0.00  -0.00  -0.00
  70   1     0.00   0.00   0.00     0.00   0.00   0.00    -0.00  -0.00  -0.00
  71   1     0.00   0.00   0.00     0.00   0.00   0.00    -0.00  -0.00  -0.00
  72   1     0.00  -0.00   0.00     0.00  -0.00   0.00    -0.00  -0.00  -0.00
  73   1     0.00  -0.00   0.00    -0.00   0.00  -0.00     0.00  -0.00   0.00
  74   1     0.00  -0.00   0.00     0.00  -0.00   0.00    -0.00  -0.00  -0.00
  75   6    -0.00   0.00   0.00    -0.00   0.00  -0.00     0.00  -0.00  -0.00
  76   6     0.00  -0.00  -0.00     0.00  -0.00   0.00    -0.00   0.00   0.00
  77   6     0.00  -0.00   0.00    -0.00   0.00   0.00     0.00  -0.00  -0.00
  78   6    -0.00   0.00   0.00     0.00  -0.00  -0.00    -0.00   0.00   0.00
  79   6     0.00  -0.00  -0.00    -0.00   0.00   0.00     0.00  -0.00  -0.00
  80   6    -0.00   0.00  -0.00     0.00  -0.00   0.00     0.00   0.00   0.00
  81   6    -0.00  -0.00  -0.00    -0.00  -0.00  -0.00    -0.00  -0.00  -0.00
  82   6     0.00   0.00   0.00     0.00   0.00   0.00     0.00   0.00   0.00
  83   6    -0.00  -0.00   0.00    -0.00  -0.00   0.00    -0.00  -0.00   0.00
  84   6     0.00   0.00   0.00     0.00   0.00   0.00    -0.00  -0.00   0.00
  85   6    -0.00  -0.00  -0.00    -0.00  -0.00  -0.00     0.00   0.00   0.00
  86   6     0.00   0.00   0.00     0.00   0.00   0.00    -0.00  -0.00  -0.00
  87   6    -0.00   0.00  -0.00     0.00   0.00  -0.00    -0.00   0.00  -0.00
  88   6     0.00  -0.00   0.00     0.00   0.00  -0.00     0.00  -0.00   0.00
  89   6     0.00  -0.00   0.00    -0.00   0.00  -0.00     0.00   0.00  -0.00
  90   6     0.00   0.00  -0.00    -0.00  -0.00   0.00    -0.00   0.00   0.00
  91   6    -0.00   0.00  -0.00     0.00  -0.00   0.00    -0.00   0.00   0.00
  92   6     0.00  -0.00   0.00    -0.00   0.00  -0.00     0.00  -0.00   0.00
  93   6     0.00  -0.00   0.00    -0.00   0.00  -0.00     0.00   0.00   0.00
  94   6    -0.00   0.00  -0.00     0.00  -0.00  -0.00     0.00   0.00  -0.00
  95   7    -0.08   0.05  -0.08     0.15  -0.09   0.15    -0.00   0.00  -0.00
  96   6    -0.00   0.00  -0.00     0.00  -0.00   0.00    -0.00   0.00  -0.00
  97   6     0.00   0.00  -0.00    -0.00   0.00  -0.00     0.00  -0.00   0.00
  98   6    -0.00   0.00  -0.00    -0.00  -0.00  -0.00     0.00   0.00  -0.00
  99   6     0.00  -0.00   0.00     0.00  -0.00   0.00     0.00  -0.00   0.00
 100   6     0.00  -0.00   0.00     0.00  -0.00   0.00     0.00  -0.00   0.00
 101   7    -0.00  -0.00   0.00    -0.00  -0.00   0.00     0.00   0.00  -0.00
 102   6     0.00   0.00  -0.00     0.00   0.00  -0.00     0.00   0.00   0.00
 103   6    -0.00   0.00  -0.00    -0.00   0.00  -0.00    -0.00   0.00  -0.00
 104   6     0.00  -0.00   0.00     0.00  -0.00   0.00    -0.00   0.00  -0.00
 105   6     0.00  -0.00   0.00     0.00  -0.00   0.00     0.00   0.00  -0.00
 106   6    -0.00   0.00  -0.00    -0.00  -0.00   0.00     0.00   0.00  -0.00
 107   7    -0.15   0.09  -0.15    -0.08   0.05  -0.08    -0.00   0.00  -0.00
 108   6    -0.00   0.00  -0.00    -0.00   0.00  -0.00    -0.00   0.00  -0.00
 109   6     0.00  -0.00   0.00     0.00  -0.00   0.00     0.00  -0.00   0.00
 110   7    -0.00  -0.00   0.00     0.00   0.00  -0.00    -0.00   0.00  -0.00
 111   1    -0.00  -0.00   0.00     0.00   0.00  -0.00    -0.00  -0.00   0.00
 112   1    -0.00   0.00   0.00     0.00   0.00  -0.00    -0.00   0.00   0.00
 113   1     0.00  -0.00   0.00     0.00  -0.00   0.00    -0.00   0.00   0.00
 114   1     0.00  -0.00   0.00    -0.00   0.00  -0.00    -0.00   0.00  -0.00
 115   1     0.31  -0.18   0.31    -0.56   0.32  -0.54     0.00  -0.00   0.00
 116   1    -0.00  -0.00   0.01     0.00   0.00  -0.00    -0.00  -0.00   0.00
 117   1    -0.00  -0.00   0.00    -0.00  -0.00   0.00    -0.00   0.00  -0.00
 118   1    -0.00  -0.00   0.00    -0.00  -0.00   0.00    -0.00   0.00   0.00
 119   1     0.00  -0.00   0.00    -0.00   0.00  -0.00     0.00  -0.00   0.00
 120   1     0.00  -0.00   0.00     0.00  -0.00   0.00     0.00  -0.00   0.00
 121   1     0.55  -0.32   0.55     0.31  -0.18   0.31     0.00  -0.00   0.00
 122   1    -0.00  -0.00   0.01     0.00  -0.00   0.00    -0.00  -0.00   0.00
                    358                    359                    360
                        a                      a                      a 
 Frequencies --  3348.8578              3353.6643              3357.7224
 Red. masses --     1.8921                 1.8880                 1.8870
 Frc consts  --     0.0000                 0.0000                 0.0000
 IR Inten    --    49.8077              1370.8424                30.4062
 Raman Activ --     0.0000                 0.0000                 0.0000
 Depolar     --     0.0000                 0.0000                 0.0000
 Atom AN      X      Y      Z        X      Y      Z        X      Y      Z
   1   6     0.00   0.00   0.00    -0.00  -0.00  -0.00    -0.00  -0.00  -0.00
   2   6    -0.00  -0.00  -0.00    -0.00  -0.00  -0.00     0.00  -0.00  -0.00
   3   6     0.00  -0.00  -0.00     0.00  -0.00   0.00     0.00  -0.00  -0.00
   4   6    -0.00   0.00   0.00    -0.00  -0.00  -0.00    -0.00   0.00   0.00
   5   6    -0.00   0.00   0.00     0.00   0.00   0.00    -0.00   0.00   0.00
   6   6    -0.00   0.00  -0.00     0.00  -0.00  -0.00    -0.00   0.00   0.00
   7   6     0.00   0.00   0.00     0.00  -0.00  -0.00     0.00   0.00   0.00
   8   6     0.00   0.00   0.00    -0.00  -0.00  -0.00     0.00   0.00   0.00
   9   7    -0.00   0.00   0.00    -0.02   0.03   0.03    -0.00   0.00   0.00
  10   6     0.00   0.00   0.00    -0.00  -0.00  -0.00    -0.00   0.00   0.00
  11   6     0.00  -0.00  -0.00    -0.00  -0.00  -0.00     0.00  -0.00  -0.00
  12   6     0.00  -0.00  -0.00     0.00  -0.00  -0.00     0.00   0.00   0.00
  13   6    -0.00  -0.00  -0.00     0.00   0.00   0.00     0.00  -0.00  -0.00
  14   6     0.00  -0.00  -0.00    -0.00   0.00   0.00     0.00  -0.00  -0.00
  15   7     0.00   0.00   0.00     0.00   0.00   0.00     0.00   0.00   0.00
  16   6    -0.00   0.00   0.00     0.00  -0.00  -0.00    -0.00   0.00  -0.00
  17   6    -0.00   0.00   0.00     0.00  -0.00  -0.00    -0.00   0.00  -0.00
  18   6    -0.00   0.00   0.00     0.00   0.00   0.00     0.00   0.00   0.00
  19   6     0.00   0.00   0.00    -0.00   0.00   0.00     0.00   0.00  -0.00
  20   6     0.00   0.00   0.00     0.00  -0.00  -0.00     0.00   0.00   0.00
  21   7    -0.00   0.00   0.00     0.12  -0.15  -0.17     0.00  -0.00  -0.00
  22   6    -0.00   0.00   0.00     0.00  -0.00  -0.00    -0.00   0.00   0.00
  23   6     0.00  -0.00  -0.00    -0.00   0.00   0.00     0.00  -0.00  -0.00
  24   7    -0.00   0.00   0.00    -0.00  -0.00  -0.00    -0.00   0.00   0.00
  25   1    -0.00  -0.00  -0.00     0.00   0.00   0.00     0.00   0.00   0.00
  26   1    -0.00   0.00   0.00     0.00  -0.00  -0.00    -0.00   0.00  -0.00
  27   1     0.00  -0.00  -0.00    -0.00   0.00   0.00     0.00  -0.00  -0.00
  28   1     0.00  -0.00  -0.00     0.00   0.00   0.00    -0.00  -0.00  -0.00
  29   1     0.00  -0.00  -0.00     0.09  -0.11  -0.12     0.00  -0.00  -0.00
  30   1    -0.00  -0.00  -0.00     0.00   0.00   0.00    -0.00  -0.00  -0.00
  31   1     0.00   0.00   0.00     0.00   0.00   0.00    -0.00  -0.00  -0.00
  32   1     0.00  -0.00  -0.00     0.00  -0.00   0.00    -0.00   0.00  -0.00
  33   1     0.00  -0.00  -0.00    -0.00   0.00  -0.00     0.00  -0.00  -0.00
  34   1     0.00  -0.00  -0.00    -0.00   0.00   0.00    -0.00   0.00  -0.00
  35   1    -0.00  -0.00  -0.00     0.00   0.00   0.00     0.00   0.00  -0.00
  36   1     0.00  -0.00  -0.00    -0.45   0.57   0.61    -0.00   0.00   0.00
  37   1    -0.00  -0.00  -0.00     0.00   0.00   0.00    -0.00   0.00  -0.00
  38   6    -0.00  -0.00  -0.00     0.00   0.00  -0.00     0.00   0.00  -0.00
  39   6     0.00  -0.00   0.00    -0.00   0.00  -0.00     0.00   0.00  -0.00
  40   6     0.00  -0.00   0.00    -0.00  -0.00  -0.00    -0.00  -0.00  -0.00
  41   6     0.00   0.00  -0.00     0.00   0.00   0.00    -0.00   0.00  -0.00
  42   6    -0.00   0.00  -0.00    -0.00  -0.00  -0.00    -0.00  -0.00   0.00
  43   6     0.00  -0.00   0.00    -0.00  -0.00   0.00    -0.00   0.00  -0.00
  44   6     0.00  -0.00   0.00     0.00   0.00   0.00    -0.00   0.00  -0.00
  45   6    -0.00   0.00  -0.00    -0.00  -0.00   0.00     0.00   0.00  -0.00
  46   7    -0.20   0.13  -0.09    -0.00   0.00  -0.00     0.04  -0.03   0.02
  47   6    -0.00   0.00  -0.00     0.00   0.00  -0.00    -0.00   0.00  -0.00
  48   6     0.00  -0.00   0.00    -0.00   0.00  -0.00    -0.00   0.00  -0.00
  49   6     0.00   0.00  -0.00    -0.00   0.00  -0.00    -0.00  -0.00  -0.00
  50   6     0.00   0.00  -0.00    -0.00  -0.00  -0.00     0.00  -0.00   0.00
  51   6     0.00  -0.00   0.00    -0.00  -0.00  -0.00     0.00  -0.00   0.00
  52   7     0.00   0.00  -0.00     0.00  -0.00  -0.00    -0.00  -0.00   0.00
  53   6    -0.00   0.00  -0.00     0.00   0.00  -0.00    -0.00   0.00  -0.00
  54   6    -0.00  -0.00  -0.00     0.00  -0.00  -0.00    -0.00   0.00  -0.00
  55   6     0.00  -0.00   0.00    -0.00   0.00  -0.00     0.00  -0.00   0.00
  56   6     0.00  -0.00   0.00    -0.00   0.00  -0.00     0.00  -0.00   0.00
  57   6    -0.00   0.00  -0.00    -0.00  -0.00   0.00    -0.00  -0.00  -0.00
  58   7    -0.04   0.03  -0.02     0.00  -0.00   0.00    -0.20   0.13  -0.09
  59   6    -0.00   0.00  -0.00     0.00   0.00  -0.00    -0.00   0.00  -0.00
  60   6     0.00   0.00  -0.00    -0.00   0.00  -0.00     0.00  -0.00   0.00
  61   7    -0.00  -0.00   0.00     0.00  -0.00   0.00     0.00   0.00  -0.00
  62   1    -0.00  -0.00   0.00     0.00  -0.00   0.00    -0.00   0.00  -0.00
  63   1    -0.00  -0.00  -0.00    -0.00  -0.00  -0.00     0.00   0.00  -0.00
  64   1     0.00  -0.00   0.00     0.00   0.00   0.00     0.00   0.00   0.00
  65   1     0.00  -0.00   0.00     0.00  -0.00   0.00     0.00  -0.00   0.00
  66   1     0.75  -0.47   0.32     0.00  -0.00   0.00    -0.17   0.10  -0.07
  67   1     0.00  -0.00   0.00     0.00  -0.00   0.00     0.00  -0.00   0.00
  68   1    -0.00  -0.00   0.00     0.00  -0.00   0.00    -0.00  -0.00   0.00
  69   1    -0.00   0.00  -0.00     0.00  -0.00  -0.00    -0.00  -0.00  -0.00
  70   1     0.00   0.00   0.00    -0.00  -0.00  -0.00     0.00   0.00   0.00
  71   1     0.00  -0.00   0.00    -0.00  -0.00  -0.00     0.00   0.00   0.00
  72   1     0.00  -0.00   0.00     0.00  -0.00  -0.00     0.00  -0.00   0.00
  73   1     0.16  -0.10   0.07    -0.00   0.00  -0.00     0.75  -0.47   0.32
  74   1     0.00  -0.00   0.00     0.00  -0.00  -0.00     0.00  -0.00   0.00
  75   6     0.00  -0.00  -0.00     0.00  -0.00  -0.00     0.00  -0.00  -0.00
  76   6    -0.00   0.00   0.00    -0.00   0.00   0.00    -0.00   0.00   0.00
  77   6     0.00  -0.00   0.00     0.00  -0.00  -0.00     0.00  -0.00  -0.00
  78   6     0.00  -0.00   0.00     0.00   0.00   0.00     0.00   0.00   0.00
  79   6    -0.00  -0.00   0.00    -0.00   0.00   0.00    -0.00  -0.00   0.00
  80   6     0.00  -0.00   0.00     0.00   0.00  -0.00     0.00  -0.00  -0.00
  81   6     0.00   0.00   0.00    -0.00  -0.00  -0.00    -0.00  -0.00  -0.00
  82   6    -0.00  -0.00  -0.00     0.00   0.00   0.00     0.00   0.00   0.00
  83   6     0.00   0.00   0.00    -0.00  -0.00  -0.00    -0.00  -0.00  -0.00
  84   6    -0.00  -0.00  -0.00    -0.00  -0.00  -0.00     0.00   0.00   0.00
  85   6     0.00   0.00   0.00     0.00   0.00   0.00    -0.00  -0.00  -0.00
  86   6    -0.00  -0.00  -0.00    -0.00  -0.00  -0.00     0.00   0.00   0.00
  87   6    -0.00  -0.00   0.00    -0.00   0.00  -0.00    -0.00   0.00  -0.00
  88   6    -0.00   0.00  -0.00     0.00  -0.00   0.00     0.00   0.00  -0.00
  89   6    -0.00   0.00  -0.00    -0.00   0.00  -0.00     0.00   0.00  -0.00
  90   6    -0.00   0.00   0.00    -0.00   0.00   0.00    -0.00   0.00  -0.00
  91   6    -0.00  -0.00   0.00     0.00   0.00  -0.00    -0.00  -0.00   0.00
  92   6    -0.00  -0.00   0.00     0.00  -0.00   0.00     0.00  -0.00   0.00
  93   6    -0.00   0.00  -0.00     0.00  -0.00   0.00    -0.00  -0.00   0.00
  94   6    -0.00  -0.00   0.00     0.00   0.00  -0.00     0.00   0.00  -0.00
  95   7     0.00  -0.00  -0.00    -0.00   0.00  -0.00     0.00  -0.00   0.00
  96   6     0.00   0.00  -0.00    -0.00  -0.00   0.00    -0.00  -0.00   0.00
  97   6    -0.00  -0.00   0.00     0.00  -0.00   0.00     0.00  -0.00   0.00
  98   6     0.00   0.00  -0.00     0.00  -0.00   0.00    -0.00  -0.00   0.00
  99   6     0.00   0.00  -0.00    -0.00  -0.00   0.00    -0.00  -0.00   0.00
 100   6     0.00  -0.00   0.00    -0.00  -0.00   0.00     0.00   0.00   0.00
 101   7    -0.00   0.00  -0.00     0.00   0.00  -0.00    -0.00   0.00  -0.00
 102   6    -0.00  -0.00   0.00     0.00  -0.00   0.00     0.00   0.00   0.00
 103   6     0.00   0.00  -0.00     0.00   0.00  -0.00     0.00  -0.00   0.00
 104   6     0.00   0.00   0.00    -0.00   0.00  -0.00    -0.00   0.00  -0.00
 105   6     0.00  -0.00   0.00     0.00   0.00  -0.00    -0.00   0.00  -0.00
 106   6    -0.00   0.00   0.00     0.00   0.00  -0.00     0.00   0.00  -0.00
 107   7     0.00  -0.00   0.00    -0.00   0.00  -0.00     0.00  -0.00   0.00
 108   6     0.00  -0.00   0.00    -0.00   0.00  -0.00    -0.00   0.00   0.00
 109   6    -0.00   0.00  -0.00     0.00  -0.00   0.00     0.00  -0.00   0.00
 110   7    -0.00  -0.00   0.00    -0.00   0.00  -0.00    -0.00   0.00  -0.00
 111   1     0.00   0.00  -0.00    -0.00  -0.00   0.00    -0.00  -0.00   0.00
 112   1     0.00  -0.00   0.00    -0.00   0.00   0.00    -0.00  -0.00   0.00
 113   1     0.00  -0.00   0.00    -0.00   0.00  -0.00    -0.00   0.00  -0.00
 114   1     0.00  -0.00   0.00    -0.00   0.00  -0.00    -0.00   0.00  -0.00
 115   1    -0.00   0.00   0.00     0.00  -0.00   0.00    -0.00   0.00  -0.00
 116   1     0.00  -0.00   0.00    -0.00   0.00  -0.00     0.00   0.00  -0.00
 117   1    -0.00  -0.00   0.00     0.00   0.00  -0.00     0.00   0.00  -0.00
 118   1    -0.00  -0.00   0.00     0.00   0.00  -0.00     0.00   0.00   0.00
 119   1    -0.00  -0.00  -0.00     0.00  -0.00   0.00     0.00  -0.00   0.00
 120   1    -0.00   0.00  -0.00     0.00  -0.00   0.00     0.00  -0.00   0.00
 121   1    -0.00   0.00  -0.00     0.00  -0.00   0.00    -0.00   0.00  -0.00
 122   1    -0.00   0.00  -0.00    -0.00  -0.00   0.00    -0.00  -0.00   0.00
