      -----------------------------------------------------------      
     |                   =====================                   |     
     |                           x T B                           |     
     |                   =====================                   |     
     |                         S. Grimme                         |     
     |          Mulliken Center for Theoretical Chemistry        |     
     |                    University of Bonn                     |     
      -----------------------------------------------------------      

   * xtb version 6.4.1 (bd6e46d) compiled by 'conda@4901f00b25ba' on 2021-06-10

   xtb is free software: you can redistribute it and/or modify it under
   the terms of the GNU Lesser General Public License as published by
   the Free Software Foundation, either version 3 of the License, or
   (at your option) any later version.
   
   xtb is distributed in the hope that it will be useful,
   but WITHOUT ANY WARRANTY; without even the implied warranty of
   MERCHANTABILITY or FITNESS FOR A PARTICULAR PURPOSE.  See the
   GNU Lesser General Public License for more details.
   
   Cite this work as:
   * C. Bannwarth, E. Caldeweyher, S. Ehlert, A. Hansen, P. Pracht,
     J. Seibert, S. Spicher, S. Grimme, WIREs Comput. Mol. Sci., 2020, 11,
     e01493. DOI: 10.1002/wcms.1493
   
   for GFN2-xTB:
   * C. Bannwarth, S. Ehlert and S. Grimme., J. Chem. Theory Comput., 2019,
     15, 1652-1671. DOI: 10.1021/acs.jctc.8b01176
   for GFN1-xTB:
   * S. Grimme, C. Bannwarth, P. Shushkov, J. Chem. Theory Comput., 2017,
     13, 1989-2009. DOI: 10.1021/acs.jctc.7b00118
   for GFN0-xTB:
   * P. Pracht, E. Caldeweyher, S. Ehlert, S. Grimme, ChemRxiv, 2019, preprint.
     DOI: 10.26434/chemrxiv.8326202.v1
   for GFN-FF:
   * S. Spicher and S. Grimme, Angew. Chem. Int. Ed., 2020, 59, 15665-15673.
     DOI: 10.1002/anie.202004239
   
   for DFT-D4:
   * E. Caldeweyher, C. Bannwarth and S. Grimme, J. Chem. Phys., 2017,
     147, 034112. DOI: 10.1063/1.4993215
   * E. Caldeweyher, S. Ehlert, A. Hansen, H. Neugebauer, S. Spicher,
     C. Bannwarth and S. Grimme, J. Chem. Phys., 2019, 150, 154122.
     DOI: 10.1063/1.5090222
   * E. Caldeweyher, J.-M. Mewes, S. Ehlert and S. Grimme, Phys. Chem. Chem. Phys.
     2020, 22, 8499-8512. DOI: 10.1039/D0CP00502A
   
   for sTDA-xTB:
   * S. Grimme and C. Bannwarth, J. Chem. Phys., 2016, 145, 054103.
     DOI: 10.1063/1.4959605
   
   in the mass-spec context:
   * V. Asgeirsson, C. Bauer and S. Grimme, Chem. Sci., 2017, 8, 4879.
     DOI: 10.1039/c7sc00601b
   * J. Koopman and S. Grimme, ACS Omega 2019, 4, 12, 15120-15133.
     DOI: 10.1021/acsomega.9b02011
   
   for metadynamics refer to:
   * S. Grimme, J. Chem. Theory Comput., 2019, 155, 2847-2862
     DOI: 10.1021/acs.jctc.9b00143
   
   for SPH calculations refer to:
   * S. Spicher and S. Grimme, J. Chem. Theory Comput., 2021, 17, 1701-1714
     DOI: 10.1021/acs.jctc.0c01306
   
   with help from (in alphabetical order)
   P. Atkinson, C. Bannwarth, F. Bohle, G. Brandenburg, E. Caldeweyher
   M. Checinski, S. Dohm, S. Ehlert, S. Ehrlich, I. Gerasimov, J. Koopman
   C. Lavigne, S. Lehtola, F. März, M. Müller, F. Musil, H. Neugebauer
   J. Pisarek, C. Plett, P. Pracht, J. Seibert, P. Shushkov, S. Spicher
   M. Stahn, M. Steiner, T. Strunk, J. Stückrath, T. Rose, and J. Unsleber
   
 * started run on 2021/11/18 at 17:28:19.209     

           -------------------------------------------------
          |                Calculation Setup                |
           -------------------------------------------------

          program call               : /home/jeff/miniconda3/bin/xtb input_structure_1.xyz --gfn 2 --ohess normal --parallel 1 --etemp 300 --chrg 0 --uhf 0 -I det_control.in
          hostname                   : jelfscompute1
          coordinate file            : input_structure_1.xyz
          omp threads                :                     1
          number of atoms            :                   122
          number of electrons        :                   386
          charge                     :                     0
          spin                       :                   0.0
          first test random number   :      0.23668428599448

   ID    Z sym.   atoms
    1    6 C      1-8, 10-14, 16-20, 22, 23, 38-45, 47-51, 53-57, 59, 60,
                  75-94, 96-100, 102-106, 108, 109
    2    7 N      9, 15, 21, 24, 46, 52, 58, 61, 95, 101, 107, 110
    3    1 H      25-37, 62-74, 111-122

           -------------------------------------------------
          |                 G F N 2 - x T B                 |
           -------------------------------------------------

        Reference                      10.1021/acs.jctc.8b01176
      * Hamiltonian:
        H0-scaling (s, p, d)           1.850000    2.230000    2.230000
        zeta-weighting                 0.500000
      * Dispersion:
        s8                             2.700000
        a1                             0.520000
        a2                             5.000000
        s9                             5.000000
      * Repulsion:
        kExp                           1.500000    1.000000
        rExp                           1.000000
      * Coulomb:
        alpha                          2.000000
        third order                    shell-resolved
        anisotropic                    true
        a3                             3.000000
        a5                             4.000000
        cn-shift                       1.200000
        cn-exp                         4.000000
        max-rad                        5.000000


          ...................................................
          :                      SETUP                      :
          :.................................................:
          :  # basis functions                 374          :
          :  # atomic orbitals                 374          :
          :  # shells                          206          :
          :  # electrons                       386          :
          :  max. iterations                   250          :
          :  Hamiltonian                  GFN2-xTB          :
          :  restarted?                      false          :
          :  GBSA solvation                  false          :
          :  PC potential                    false          :
          :  electronic temp.          300.0000000     K    :
          :  accuracy                    1.0000000          :
          :  -> integral cutoff          0.2500000E+02      :
          :  -> integral neglect         0.1000000E-07      :
          :  -> SCF convergence          0.1000000E-05 Eh   :
          :  -> wf. convergence          0.1000000E-03 e    :
          :  Broyden damping             0.4000000          :
          ...................................................

 iter      E             dE          RMSdq      gap      omega  full diag
   1   -211.4683698 -0.211468E+03  0.559E+00    0.63       0.0  T
   2   -211.7589901 -0.290620E+00  0.347E+00    0.72       1.0  T
   3   -211.6502084  0.108782E+00  0.135E+00    0.67       1.0  T
   4   -211.6208676  0.293409E-01  0.940E-01    0.67       1.0  T
   5   -211.7588559 -0.137988E+00  0.464E-01    0.75       1.0  T
   6   -211.7993657 -0.405097E-01  0.151E-01    0.72       1.0  T
   7   -211.8024156 -0.304992E-02  0.681E-02    0.71       1.0  T
   8   -211.8025758 -0.160242E-03  0.455E-02    0.71       1.0  T
   9   -211.8027752 -0.199323E-03  0.290E-02    0.71       1.0  T
  10   -211.8028656 -0.904694E-04  0.167E-02    0.71       1.0  T
  11   -211.8029028 -0.372089E-04  0.780E-03    0.71       1.2  T
  12   -211.8029124 -0.959695E-05  0.376E-03    0.71       2.4  T
  13   -211.8029142 -0.172212E-05  0.232E-03    0.71       3.9  T
  14   -211.8029151 -0.992701E-06  0.647E-04    0.71      14.0  T
  15   -211.8029152 -0.323515E-07  0.382E-04    0.71      23.7  T

   *** convergence criteria satisfied after 15 iterations ***

         #    Occupation            Energy/Eh            Energy/eV
      -------------------------------------------------------------
         1        2.0000           -0.6913757             -18.8133
       ...           ...                  ...                  ...
       187        2.0000           -0.3536469              -9.6232
       188        2.0000           -0.3535529              -9.6207
       189        2.0000           -0.3488438              -9.4925
       190        2.0000           -0.3474311              -9.4541
       191        2.0000           -0.3452133              -9.3937
       192        2.0000           -0.3441684              -9.3653
       193        2.0000           -0.3403477              -9.2613 (HOMO)
       194        0.0000           -0.3141519              -8.5485 (LUMO)
       195                         -0.3091426              -8.4122
       196                         -0.3078548              -8.3772
       197                         -0.2962024              -8.0601
       198                         -0.2927955              -7.9674
       ...                                ...                  ...
       374                          1.6170000              44.0008
      -------------------------------------------------------------
                  HL-Gap            0.0261957 Eh            0.7128 eV
             Fermi-level           -0.3272413 Eh           -8.9047 eV

 SCC (total)                   0 d,  0 h,  0 min,  0.644 sec
 SCC setup                      ...        0 min,  0.003 sec (  0.403%)
 Dispersion                     ...        0 min,  0.007 sec (  1.124%)
 classical contributions        ...        0 min,  0.001 sec (  0.123%)
 integral evaluation            ...        0 min,  0.044 sec (  6.819%)
 iterations                     ...        0 min,  0.439 sec ( 68.137%)
 molecular gradient             ...        0 min,  0.148 sec ( 22.904%)
 printout                       ...        0 min,  0.003 sec (  0.487%)

         :::::::::::::::::::::::::::::::::::::::::::::::::::::
         ::                     SUMMARY                     ::
         :::::::::::::::::::::::::::::::::::::::::::::::::::::
         :: total energy            -207.858613884977 Eh    ::
         :: gradient norm              0.479762740745 Eh/a0 ::
         :: HOMO-LUMO gap              0.712822453242 eV    ::
         ::.................................................::
         :: SCC energy              -211.802915177782 Eh    ::
         :: -> isotropic ES            0.114988077577 Eh    ::
         :: -> anisotropic ES         -0.000424128236 Eh    ::
         :: -> anisotropic XC          0.167715483022 Eh    ::
         :: -> dispersion             -0.162549450138 Eh    ::
         :: repulsion energy           3.944890353232 Eh    ::
         :: add. restraining           0.000000000000 Eh    ::
         :: total charge               0.000000000001 e     ::
         :::::::::::::::::::::::::::::::::::::::::::::::::::::

      ----------------------------------------------------------- 
     |                   =====================                   |
     |                        A N C O P T                        |
     |                   =====================                   |
     |               Approximate Normal Coordinate               |
     |                Rational Function Optimizer                |
      ----------------------------------------------------------- 

          ...................................................
          :                      SETUP                      :
          :.................................................:
          :   optimization level            normal          :
          :   max. optcycles                   366          :
          :   ANC micro-cycles                  20          :
          :   degrees of freedom               360          :
          :.................................................:
          :   RF solver                   davidson          :
          :   write xtbopt.log                true          :
          :   linear?                        false          :
          :   energy convergence         0.5000000E-05 Eh   :
          :   grad. convergence          0.1000000E-02 Eh/α :
          :   maximium RF displ.         1.0000000          :
          :   Hlow (freq-cutoff)         0.1000000E-01      :
          :   Hmax (freq-cutoff)         5.0000000          :
          :   S6 in model hess.         20.0000000          :
          ...................................................

generating ANC from model Hessian ...
Using Lindh-Hessian (1995)
 Shifting diagonal of input Hessian by    9.9970334749368648E-003
 Lowest  eigenvalues of input Hessian
    0.000000    0.000000    0.000000    0.000000    0.000000    0.000000
    0.010000    0.010001    0.010003    0.010004    0.010006    0.010013
    0.010032    0.010054    0.010118    0.010155    0.010366    0.010506
 Highest eigenvalues
    2.279390    2.318571    2.504803    2.515652    2.842930    2.844643


........................................................................
.............................. CYCLE    1 ..............................
........................................................................
   1   -211.8029152 -0.211803E+03  0.214E-04    0.71       0.0  T
   2   -211.8029152  0.814319E-08  0.257E-04    0.71      35.3  T
   3   -211.8029152 -0.128213E-07  0.899E-05    0.71     100.8  T
     SCC iter.                  ...        0 min,  0.090 sec
     gradient                   ...        0 min,  0.146 sec
 * total energy  :  -207.8586139 Eh     change       -0.1522534E-07 Eh
   gradient norm :     0.4797603 Eh/α   predicted     0.0000000E+00 (-100.00%)
   displ. norm   :     0.5338026 α      lambda       -0.1976540E+00
   maximum displ.:     0.1678254 α      in ANC's #182, #225, #224, ...

........................................................................
.............................. CYCLE    2 ..............................
........................................................................
   1   -211.8764950 -0.211876E+03  0.336E-01    0.67       0.0  T
   2   -211.8772161 -0.721067E-03  0.200E-01    0.69       1.0  T
   3   -211.8732963  0.391975E-02  0.161E-01    0.68       1.0  T
   4   -211.8753975 -0.210117E-02  0.104E-01    0.68       1.0  T
   5   -211.8774182 -0.202077E-02  0.397E-02    0.68       1.0  T
   6   -211.8777253 -0.307057E-03  0.121E-02    0.68       1.0  T
   7   -211.8777423 -0.169562E-04  0.553E-03    0.68       1.6  T
   8   -211.8777413  0.923449E-06  0.478E-03    0.68       1.9  T
   9   -211.8777455 -0.413298E-05  0.158E-03    0.68       5.7  T
  10   -211.8777458 -0.358758E-06  0.652E-04    0.68      13.9  T
  11   -211.8777459 -0.367647E-07  0.356E-04    0.68      25.4  T
     SCC iter.                  ...        0 min,  0.319 sec
     gradient                   ...        0 min,  0.147 sec
 * total energy  :  -208.0112499 Eh     change       -0.1526360E+00 Eh
   gradient norm :     0.2415455 Eh/α   predicted    -0.1270876E+00 ( -16.74%)
   displ. norm   :     0.6022774 α      lambda       -0.1091716E+00
   maximum displ.:     0.1797883 α      in ANC's #182, #59, #64, ...

........................................................................
.............................. CYCLE    3 ..............................
........................................................................
   1   -211.9632434 -0.211963E+03  0.327E-01    0.64       0.0  T
   2   -211.9638576 -0.614219E-03  0.195E-01    0.65       1.0  T
   3   -211.9600087  0.384892E-02  0.156E-01    0.64       1.0  T
   4   -211.9622315 -0.222286E-02  0.964E-02    0.64       1.0  T
   5   -211.9640446 -0.181306E-02  0.385E-02    0.64       1.0  T
   6   -211.9643468 -0.302221E-03  0.107E-02    0.64       1.0  T
   7   -211.9643611 -0.143219E-04  0.506E-03    0.64       1.8  T
   8   -211.9643608  0.358061E-06  0.448E-03    0.64       2.0  T
   9   -211.9643637 -0.294547E-05  0.203E-03    0.64       4.5  T
  10   -211.9643643 -0.583080E-06  0.721E-04    0.64      12.6  T
  11   -211.9643643 -0.677594E-07  0.337E-04    0.64      26.8  T
     SCC iter.                  ...        0 min,  0.319 sec
     gradient                   ...        0 min,  0.147 sec
 * total energy  :  -208.0825867 Eh     change       -0.7133683E-01 Eh
   gradient norm :     0.0790646 Eh/α   predicted    -0.7438617E-01 (   4.27%)
   displ. norm   :     0.7054204 α      lambda       -0.3877874E-01
   maximum displ.:     0.2461787 α      in ANC's #59, #61, #60, ...

........................................................................
.............................. CYCLE    4 ..............................
........................................................................
   1   -212.0214759 -0.212021E+03  0.223E-01    0.66       0.0  T
   2   -212.0214430  0.328892E-04  0.134E-01    0.66       1.0  T
   3   -212.0183733  0.306967E-02  0.115E-01    0.67       1.0  T
   4   -212.0213929 -0.301951E-02  0.295E-02    0.66       1.0  T
   5   -212.0215621 -0.169258E-03  0.108E-02    0.66       1.0  T
   6   -212.0215824 -0.203375E-04  0.419E-03    0.66       2.2  T
   7   -212.0215843 -0.187228E-05  0.264E-03    0.66       3.4  T
   8   -212.0215851 -0.744445E-06  0.137E-03    0.66       6.6  T
   9   -212.0215853 -0.185289E-06  0.724E-04    0.66      12.5  T
  10   -212.0215853 -0.959820E-07  0.253E-04    0.66      35.8  T
     SCC iter.                  ...        0 min,  0.293 sec
     gradient                   ...        0 min,  0.148 sec
 * total energy  :  -208.1152760 Eh     change       -0.3268928E-01 Eh
   gradient norm :     0.0524872 Eh/α   predicted    -0.2903969E-01 ( -11.16%)
   displ. norm   :     0.8256667 α      lambda       -0.3192607E-01
   maximum displ.:     0.3033293 α      in ANC's #59, #61, #60, ...

........................................................................
.............................. CYCLE    5 ..............................
........................................................................
   1   -212.0755279 -0.212076E+03  0.217E-01    0.71       0.0  T
   2   -212.0755028  0.250633E-04  0.129E-01    0.70       1.0  T
   3   -212.0733047  0.219809E-02  0.940E-02    0.71       1.0  T
   4   -212.0755096 -0.220488E-02  0.217E-02    0.70       1.0  T
   5   -212.0755984 -0.888024E-04  0.755E-03    0.70       1.2  T
   6   -212.0756082 -0.976935E-05  0.334E-03    0.70       2.7  T
   7   -212.0756092 -0.106620E-05  0.206E-03    0.70       4.4  T
   8   -212.0756098 -0.530669E-06  0.984E-04    0.70       9.2  T
   9   -212.0756099 -0.127773E-06  0.434E-04    0.70      20.9  T
     SCC iter.                  ...        0 min,  0.261 sec
     gradient                   ...        0 min,  0.147 sec
 * total energy  :  -208.1431814 Eh     change       -0.2790539E-01 Eh
   gradient norm :     0.0403088 Eh/α   predicted    -0.2684566E-01 (  -3.80%)
   displ. norm   :     0.8581155 α      lambda       -0.2617466E-01
   maximum displ.:     0.3092276 α      in ANC's #59, #61, #60, ...

........................................................................
.............................. CYCLE    6 ..............................
........................................................................
   1   -212.1266135 -0.212127E+03  0.203E-01    0.76       0.0  T
   2   -212.1266353 -0.217642E-04  0.119E-01    0.76       1.0  T
   3   -212.1255780  0.105729E-02  0.673E-02    0.76       1.0  T
   4   -212.1266075 -0.102948E-02  0.204E-02    0.76       1.0  T
   5   -212.1266962 -0.887067E-04  0.645E-03    0.76       1.4  T
   6   -212.1267026 -0.645193E-05  0.319E-03    0.76       2.8  T
   7   -212.1267041 -0.149519E-05  0.145E-03    0.76       6.3  T
   8   -212.1267042 -0.453625E-07  0.112E-03    0.76       8.1  T
   9   -212.1267044 -0.245900E-06  0.316E-04    0.76      28.6  T
  10   -212.1267044 -0.140775E-07  0.124E-04    0.76      73.1  T
     SCC iter.                  ...        0 min,  0.291 sec
     gradient                   ...        0 min,  0.147 sec
 * total energy  :  -208.1666516 Eh     change       -0.2347026E-01 Eh
   gradient norm :     0.0370257 Eh/α   predicted    -0.2272435E-01 (  -3.18%)
   displ. norm   :     0.8739401 α      lambda       -0.2228164E-01
   maximum displ.:     0.2965248 α      in ANC's #59, #25, #61, ...

........................................................................
.............................. CYCLE    7 ..............................
........................................................................
   1   -212.1663700 -0.212166E+03  0.207E-01    0.82       0.0  T
   2   -212.1664169 -0.469005E-04  0.121E-01    0.82       1.0  T
   3   -212.1658889  0.528018E-03  0.526E-02    0.82       1.0  T
   4   -212.1663924 -0.503544E-03  0.176E-02    0.82       1.0  T
   5   -212.1664636 -0.712454E-04  0.481E-03    0.82       1.9  T
   6   -212.1664661 -0.244414E-05  0.308E-03    0.82       2.9  T
   7   -212.1664674 -0.130299E-05  0.139E-03    0.82       6.5  T
   8   -212.1664675 -0.109970E-06  0.816E-04    0.82      11.1  T
   9   -212.1664676 -0.131502E-06  0.289E-04    0.82      31.3  T
     SCC iter.                  ...        0 min,  0.263 sec
     gradient                   ...        0 min,  0.146 sec
 * total energy  :  -208.1862475 Eh     change       -0.1959581E-01 Eh
   gradient norm :     0.0307066 Eh/α   predicted    -0.1964986E-01 (   0.28%)
   displ. norm   :     0.9021661 α      lambda       -0.1907351E-01
   maximum displ.:     0.3002526 α      in ANC's #25, #59, #61, ...

........................................................................
.............................. CYCLE    8 ..............................
........................................................................
   1   -212.1993216 -0.212199E+03  0.230E-01    0.88       0.0  T
   2   -212.1993717 -0.501602E-04  0.135E-01    0.88       1.0  T
   3   -212.1989462  0.425535E-03  0.529E-02    0.88       1.0  T
   4   -212.1993667 -0.420525E-03  0.167E-02    0.88       1.0  T
   5   -212.1994170 -0.502693E-04  0.400E-03    0.88       2.3  T
   6   -212.1994169  0.616432E-07  0.300E-03    0.88       3.0  T
   7   -212.1994178 -0.931667E-06  0.157E-03    0.88       5.8  T
   8   -212.1994183 -0.443989E-06  0.541E-04    0.88      16.7  T
   9   -212.1994183 -0.460203E-07  0.280E-04    0.88      32.4  T
     SCC iter.                  ...        0 min,  0.266 sec
     gradient                   ...        0 min,  0.147 sec
 * total energy  :  -208.2011595 Eh     change       -0.1491201E-01 Eh
   gradient norm :     0.0282316 Eh/α   predicted    -0.1729876E-01 (  16.01%)
   displ. norm   :     0.8591828 α      lambda       -0.1561347E-01
   maximum displ.:     0.3189319 α      in ANC's #25, #28, #59, ...

........................................................................
.............................. CYCLE    9 ..............................
........................................................................
   1   -212.2231298 -0.212223E+03  0.214E-01    0.92       0.0  T
   2   -212.2231578 -0.279379E-04  0.126E-01    0.91       1.0  T
   3   -212.2226451  0.512669E-03  0.609E-02    0.92       1.0  T
   4   -212.2231695 -0.524354E-03  0.146E-02    0.92       1.0  T
   5   -212.2232018 -0.323381E-04  0.378E-03    0.91       2.4  T
   6   -212.2232016  0.195294E-06  0.319E-03    0.91       2.8  T
   7   -212.2232029 -0.128650E-05  0.125E-03    0.91       7.2  T
   8   -212.2232031 -0.168882E-06  0.503E-04    0.91      18.0  T
   9   -212.2232031 -0.394973E-07  0.219E-04    0.91      41.3  T
     SCC iter.                  ...        0 min,  0.265 sec
     gradient                   ...        0 min,  0.146 sec
 * total energy  :  -208.2133530 Eh     change       -0.1219355E-01 Eh
   gradient norm :     0.0234685 Eh/α   predicted    -0.1356964E-01 (  11.29%)
   displ. norm   :     0.8033464 α      lambda       -0.1024747E-01
   maximum displ.:     0.3357679 α      in ANC's #25, #28, #23, ...

........................................................................
.............................. CYCLE   10 ..............................
........................................................................
   1   -212.2362032 -0.212236E+03  0.163E-01    0.94       0.0  T
   2   -212.2362231 -0.198987E-04  0.951E-02    0.93       1.0  T
   3   -212.2359791  0.243992E-03  0.367E-02    0.94       1.0  T
   4   -212.2362091 -0.229956E-03  0.122E-02    0.94       1.0  T
   5   -212.2362421 -0.330153E-04  0.335E-03    0.93       2.7  T
   6   -212.2362432 -0.112512E-05  0.192E-03    0.93       4.7  T
   7   -212.2362436 -0.328591E-06  0.845E-04    0.93      10.7  T
   8   -212.2362436 -0.386296E-07  0.458E-04    0.93      19.8  T
     SCC iter.                  ...        0 min,  0.235 sec
     gradient                   ...        0 min,  0.147 sec
 * total energy  :  -208.2221285 Eh     change       -0.8775516E-02 Eh
   gradient norm :     0.0233046 Eh/α   predicted    -0.8430427E-02 (  -3.93%)
   displ. norm   :     0.8519231 α      lambda       -0.9708929E-02
   maximum displ.:     0.3634071 α      in ANC's #25, #28, #23, ...

........................................................................
.............................. CYCLE   11 ..............................
........................................................................
   1   -212.2497072 -0.212250E+03  0.201E-01    0.95       0.0  T
   2   -212.2497207 -0.134693E-04  0.119E-01    0.95       1.0  T
   3   -212.2493960  0.324616E-03  0.472E-02    0.95       1.0  T
   4   -212.2497292 -0.333195E-03  0.919E-03    0.95       1.0  T
   5   -212.2497412 -0.119552E-04  0.364E-03    0.95       2.5  T
   6   -212.2497422 -0.103706E-05  0.252E-03    0.95       3.6  T
   7   -212.2497431 -0.902969E-06  0.110E-03    0.95       8.2  T
   8   -212.2497432 -0.116693E-06  0.459E-04    0.95      19.7  T
   9   -212.2497433 -0.291149E-07  0.133E-04    0.95      68.0  T
     SCC iter.                  ...        0 min,  0.265 sec
     gradient                   ...        0 min,  0.148 sec
 * total energy  :  -208.2290807 Eh     change       -0.6952201E-02 Eh
   gradient norm :     0.0235486 Eh/α   predicted    -0.8377713E-02 (  20.50%)
   displ. norm   :     0.7720222 α      lambda       -0.9257369E-02
   maximum displ.:     0.3577099 α      in ANC's #25, #28, #23, ...

........................................................................
.............................. CYCLE   12 ..............................
........................................................................
   1   -212.2705447 -0.212271E+03  0.177E-01    0.94       0.0  T
   2   -212.2705529 -0.814271E-05  0.105E-01    0.94       1.0  T
   3   -212.2701394  0.413464E-03  0.494E-02    0.94       1.0  T
   4   -212.2705661 -0.426662E-03  0.863E-03    0.95       1.0  T
   5   -212.2705760 -0.989816E-05  0.407E-03    0.94       2.2  T
   6   -212.2705777 -0.172189E-05  0.207E-03    0.94       4.4  T
   7   -212.2705780 -0.342278E-06  0.922E-04    0.94       9.8  T
   8   -212.2705781 -0.552988E-07  0.394E-04    0.94      23.0  T
     SCC iter.                  ...        0 min,  0.235 sec
     gradient                   ...        0 min,  0.148 sec
 * total energy  :  -208.2360462 Eh     change       -0.6965442E-02 Eh
   gradient norm :     0.0178182 Eh/α   predicted    -0.7387468E-02 (   6.06%)
   displ. norm   :     0.7966137 α      lambda       -0.6498112E-02
   maximum displ.:     0.3970292 α      in ANC's #25, #23, #28, ...

........................................................................
.............................. CYCLE   13 ..............................
........................................................................
   1   -212.2684276 -0.212268E+03  0.167E-01    0.95       0.0  T
   2   -212.2684382 -0.106617E-04  0.979E-02    0.95       1.0  T
   3   -212.2682015  0.236700E-03  0.349E-02    0.95       1.0  T
   4   -212.2684390 -0.237435E-03  0.850E-03    0.95       1.1  T
   5   -212.2684517 -0.127232E-04  0.324E-03    0.95       2.8  T
   6   -212.2684525 -0.798933E-06  0.200E-03    0.95       4.5  T
   7   -212.2684530 -0.490107E-06  0.701E-04    0.95      12.9  T
   8   -212.2684530 -0.464736E-07  0.361E-04    0.95      25.1  T
     SCC iter.                  ...        0 min,  0.235 sec
     gradient                   ...        0 min,  0.148 sec
 * total energy  :  -208.2416132 Eh     change       -0.5567075E-02 Eh
   gradient norm :     0.0235873 Eh/α   predicted    -0.5310884E-02 (  -4.60%)
   displ. norm   :     0.7998142 α      lambda       -0.6514043E-02
   maximum displ.:     0.3919922 α      in ANC's #25, #28, #23, ...

........................................................................
.............................. CYCLE   14 ..............................
........................................................................
   1   -212.2785817 -0.212279E+03  0.167E-01    0.96       0.0  T
   2   -212.2785894 -0.774806E-05  0.980E-02    0.96       1.0  T
   3   -212.2783528  0.236655E-03  0.318E-02    0.96       1.0  T
   4   -212.2785948 -0.242015E-03  0.779E-03    0.96       1.2  T
   5   -212.2786038 -0.901187E-05  0.278E-03    0.96       3.3  T
   6   -212.2786039 -0.729877E-07  0.177E-03    0.96       5.1  T
   7   -212.2786042 -0.367317E-06  0.672E-04    0.96      13.5  T
   8   -212.2786043 -0.805547E-07  0.239E-04    0.96      37.9  T
     SCC iter.                  ...        0 min,  0.234 sec
     gradient                   ...        0 min,  0.148 sec
 * total energy  :  -208.2470684 Eh     change       -0.5455140E-02 Eh
   gradient norm :     0.0232989 Eh/α   predicted    -0.5340545E-02 (  -2.10%)
   displ. norm   :     0.8109016 α      lambda       -0.6199864E-02
   maximum displ.:     0.4063144 α      in ANC's #25, #28, #23, ...

........................................................................
.............................. CYCLE   15 ..............................
........................................................................
   1   -212.2833381 -0.212283E+03  0.181E-01    0.98       0.0  T
   2   -212.2833522 -0.140389E-04  0.106E-01    0.98       1.0  T
   3   -212.2831858  0.166420E-03  0.321E-02    0.98       1.0  T
   4   -212.2833596 -0.173839E-03  0.732E-03    0.98       1.2  T
   5   -212.2833666 -0.699146E-05  0.320E-03    0.98       2.8  T
   6   -212.2833669 -0.299087E-06  0.231E-03    0.98       3.9  T
   7   -212.2833676 -0.697592E-06  0.870E-04    0.98      10.4  T
   8   -212.2833677 -0.109853E-06  0.252E-04    0.98      35.9  T
     SCC iter.                  ...        0 min,  0.234 sec
     gradient                   ...        0 min,  0.148 sec
 * total energy  :  -208.2517297 Eh     change       -0.4661340E-02 Eh
   gradient norm :     0.0218379 Eh/α   predicted    -0.5138335E-02 (  10.23%)
   displ. norm   :     0.7876117 α      lambda       -0.5206192E-02
   maximum displ.:     0.3502204 α      in ANC's #25, #15, #23, ...

........................................................................
.............................. CYCLE   16 ..............................
........................................................................
   1   -212.2794712 -0.212279E+03  0.181E-01    0.99       0.0  T
   2   -212.2794861 -0.149137E-04  0.106E-01    0.99       1.0  T
   3   -212.2794041  0.820084E-04  0.209E-02    0.99       1.0  T
   4   -212.2794834 -0.793154E-04  0.767E-03    0.99       1.2  T
   5   -212.2794943 -0.109192E-04  0.305E-03    0.99       3.0  T
   6   -212.2794948 -0.501104E-06  0.207E-03    0.99       4.4  T
   7   -212.2794952 -0.438326E-06  0.748E-04    0.99      12.1  T
   8   -212.2794953 -0.649373E-07  0.276E-04    0.99      32.8  T
     SCC iter.                  ...        0 min,  0.234 sec
     gradient                   ...        0 min,  0.148 sec
 * total energy  :  -208.2554733 Eh     change       -0.3743587E-02 Eh
   gradient norm :     0.0214590 Eh/α   predicted    -0.4217893E-02 (  12.67%)
   displ. norm   :     0.7147668 α      lambda       -0.4682438E-02
   maximum displ.:     0.3094686 α      in ANC's #25, #17, #23, ...

........................................................................
.............................. CYCLE   17 ..............................
........................................................................
   1   -212.2885284 -0.212289E+03  0.181E-01    1.00       0.0  T
   2   -212.2885387 -0.103275E-04  0.107E-01    1.00       1.0  T
   3   -212.2883203  0.218399E-03  0.368E-02    1.00       1.0  T
   4   -212.2885465 -0.226159E-03  0.661E-03    1.00       1.4  T
   5   -212.2885515 -0.500952E-05  0.337E-03    1.00       2.7  T
   6   -212.2885527 -0.124482E-05  0.189E-03    1.00       4.8  T
   7   -212.2885530 -0.292254E-06  0.100E-03    1.00       9.0  T
   8   -212.2885532 -0.127495E-06  0.332E-04    1.00      27.3  T
   9   -212.2885532 -0.171804E-07  0.142E-04    1.00      63.8  T
     SCC iter.                  ...        0 min,  0.264 sec
     gradient                   ...        0 min,  0.147 sec
 * total energy  :  -208.2581859 Eh     change       -0.2712576E-02 Eh
   gradient norm :     0.0314539 Eh/α   predicted    -0.3537334E-02 (  30.40%)
   displ. norm   :     0.6151020 α      lambda       -0.3747438E-02
   maximum displ.:     0.2297027 α      in ANC's #15, #25, #17, ...

........................................................................
.............................. CYCLE   18 ..............................
........................................................................
   1   -212.2938573 -0.212294E+03  0.136E-01    1.00       0.0  T
   2   -212.2938636 -0.636747E-05  0.800E-02    1.00       1.0  T
   3   -212.2937857  0.779710E-04  0.184E-02    1.00       1.0  T
   4   -212.2938645 -0.788073E-04  0.553E-03    1.00       1.6  T
   5   -212.2938694 -0.492837E-05  0.283E-03    1.00       3.2  T
   6   -212.2938700 -0.609890E-06  0.164E-03    1.00       5.5  T
   7   -212.2938703 -0.235364E-06  0.613E-04    1.00      14.8  T
   8   -212.2938703 -0.474493E-07  0.214E-04    1.00      42.3  T
     SCC iter.                  ...        0 min,  0.234 sec
     gradient                   ...        0 min,  0.146 sec
 * total energy  :  -208.2605223 Eh     change       -0.2336375E-02 Eh
   gradient norm :     0.0245169 Eh/α   predicted    -0.2582647E-02 (  10.54%)
   displ. norm   :     0.6453640 α      lambda       -0.3780547E-02
   maximum displ.:     0.2680172 α      in ANC's #25, #17, #15, ...

........................................................................
.............................. CYCLE   19 ..............................
........................................................................
   1   -212.2928788 -0.212293E+03  0.142E-01    1.00       0.0  T
   2   -212.2928888 -0.999300E-05  0.840E-02    1.00       1.0  T
   3   -212.2927370  0.151721E-03  0.309E-02    1.00       1.0  T
   4   -212.2928933 -0.156269E-03  0.703E-03    1.00       1.3  T
   5   -212.2929001 -0.680621E-05  0.296E-03    1.00       3.1  T
   6   -212.2929007 -0.594838E-06  0.196E-03    1.00       4.6  T
   7   -212.2929011 -0.423158E-06  0.811E-04    1.00      11.2  T
   8   -212.2929012 -0.665549E-07  0.349E-04    1.00      25.9  T
     SCC iter.                  ...        0 min,  0.234 sec
     gradient                   ...        0 min,  0.147 sec
 * total energy  :  -208.2617896 Eh     change       -0.1267337E-02 Eh
   gradient norm :     0.0377066 Eh/α   predicted    -0.2677569E-02 ( 111.28%)
   displ. norm   :     0.4637735 α      lambda       -0.3145840E-02
   maximum displ.:     0.1773656 α      in ANC's #17, #15, #16, ...

........................................................................
.............................. CYCLE   20 ..............................
........................................................................
   1   -212.2903553 -0.212290E+03  0.989E-02    1.01       0.0  T
   2   -212.2903602 -0.484824E-05  0.581E-02    1.01       1.0  T
   3   -212.2902557  0.104459E-03  0.241E-02    1.01       1.0  T
   4   -212.2903593 -0.103632E-03  0.659E-03    1.01       1.4  T
   5   -212.2903665 -0.721988E-05  0.185E-03    1.01       4.9  T
   6   -212.2903666 -0.820661E-07  0.129E-03    1.01       7.0  T
   7   -212.2903668 -0.164063E-06  0.582E-04    1.01      15.5  T
   8   -212.2903668 -0.497538E-07  0.223E-04    1.01      40.6  T
     SCC iter.                  ...        0 min,  0.234 sec
     gradient                   ...        0 min,  0.147 sec
 * total energy  :  -208.2635996 Eh     change       -0.1810039E-02 Eh
   gradient norm :     0.0205091 Eh/α   predicted    -0.1911239E-02 (   5.59%)
   displ. norm   :     0.4338967 α      lambda       -0.3002941E-02
   maximum displ.:     0.1933170 α      in ANC's #15, #17, #182, ...
 * RMSD in coord.:     1.0565034 α      energy gain  -0.4049857E+00 Eh

generating ANC from model Hessian ...
Using Lindh-Hessian (1995)
 Shifting diagonal of input Hessian by    9.9953187332594041E-003
 Lowest  eigenvalues of input Hessian
    0.000000    0.000000    0.000000    0.000000    0.000000    0.000000
    0.010000    0.010002    0.010007    0.010010    0.010010    0.010014
    0.010040    0.010066    0.010106    0.010142    0.010540    0.010708
 Highest eigenvalues
    2.271958    2.276094    2.682819    2.687149    3.015575    3.020273


........................................................................
.............................. CYCLE   21 ..............................
........................................................................
   1   -212.3355866 -0.212336E+03  0.125E-01    1.00       0.0  T
   2   -212.3355917 -0.514245E-05  0.739E-02    1.00       1.0  T
   3   -212.3352897  0.302074E-03  0.432E-02    1.00       1.0  T
   4   -212.3356053 -0.315591E-03  0.734E-03    1.00       1.2  T
   5   -212.3356120 -0.675348E-05  0.322E-03    1.00       2.8  T
   6   -212.3356132 -0.114538E-05  0.177E-03    1.00       5.1  T
   7   -212.3356134 -0.243019E-06  0.803E-04    1.00      11.3  T
   8   -212.3356135 -0.757669E-07  0.288E-04    1.00      31.4  T
     SCC iter.                  ...        0 min,  0.234 sec
     gradient                   ...        0 min,  0.148 sec
 * total energy  :  -208.2640584 Eh     change       -0.4587252E-03 Eh
   gradient norm :     0.0317615 Eh/α   predicted     0.0000000E+00 (-100.00%)
   displ. norm   :     0.2372363 α      lambda       -0.2354493E-02
   maximum displ.:     0.1197471 α      in ANC's #14, #15, #19, ...

........................................................................
.............................. CYCLE   22 ..............................
........................................................................
   1   -212.3162691 -0.212316E+03  0.806E-02    1.01       0.0  T
   2   -212.3162721 -0.295491E-05  0.479E-02    1.01       1.0  T
   3   -212.3162303  0.417056E-04  0.157E-02    1.01       1.0  T
   4   -212.3162736 -0.432651E-04  0.326E-03    1.01       2.8  T
   5   -212.3162751 -0.147891E-05  0.159E-03    1.01       5.7  T
   6   -212.3162753 -0.208984E-06  0.883E-04    1.01      10.3  T
   7   -212.3162753 -0.462279E-07  0.454E-04    1.01      20.0  T
     SCC iter.                  ...        0 min,  0.205 sec
     gradient                   ...        0 min,  0.148 sec
 * total energy  :  -208.2656091 Eh     change       -0.1550721E-02 Eh
   gradient norm :     0.0100785 Eh/α   predicted    -0.1243798E-02 ( -19.79%)
   displ. norm   :     0.4364795 α      lambda       -0.1983920E-02
   maximum displ.:     0.2327060 α      in ANC's #14, #15, #16, ...

........................................................................
.............................. CYCLE   23 ..............................
........................................................................
   1   -212.2959806 -0.212296E+03  0.155E-01    1.01       0.0  T
   2   -212.2959841 -0.352902E-05  0.923E-02    1.01       1.0  T
   3   -212.2958519  0.132199E-03  0.280E-02    1.01       1.0  T
   4   -212.2959859 -0.133929E-03  0.560E-03    1.01       1.6  T
   5   -212.2959904 -0.454808E-05  0.255E-03    1.01       3.6  T
   6   -212.2959912 -0.820056E-06  0.132E-03    1.01       6.9  T
   7   -212.2959914 -0.139687E-06  0.612E-04    1.01      14.8  T
   8   -212.2959914 -0.429210E-07  0.209E-04    1.01      43.2  T
     SCC iter.                  ...        0 min,  0.233 sec
     gradient                   ...        0 min,  0.147 sec
 * total energy  :  -208.2660097 Eh     change       -0.4006515E-03 Eh
   gradient norm :     0.0181566 Eh/α   predicted    -0.1180993E-02 ( 194.77%)
   displ. norm   :     0.2645805 α      lambda       -0.1535822E-02
   maximum displ.:     0.1317867 α      in ANC's #14, #15, #19, ...

........................................................................
.............................. CYCLE   24 ..............................
........................................................................
   1   -212.3019779 -0.212302E+03  0.102E-01    1.01       0.0  T
   2   -212.3019781 -0.174577E-06  0.608E-02    1.01       1.0  T
   3   -212.3019327  0.454150E-04  0.169E-02    1.01       1.0  T
   4   -212.3019798 -0.471355E-04  0.207E-03    1.01       4.4  T
   5   -212.3019803 -0.409766E-06  0.119E-03    1.01       7.6  T
   6   -212.3019803 -0.728651E-07  0.679E-04    1.01      13.3  T
   7   -212.3019804 -0.498448E-07  0.225E-04    1.01      40.2  T
     SCC iter.                  ...        0 min,  0.206 sec
     gradient                   ...        0 min,  0.148 sec
 * total energy  :  -208.2670574 Eh     change       -0.1047637E-02 Eh
   gradient norm :     0.0137397 Eh/α   predicted    -0.8216684E-03 ( -21.57%)
   displ. norm   :     0.3767990 α      lambda       -0.1092047E-02
   maximum displ.:     0.2162794 α      in ANC's #14, #15, #17, ...

........................................................................
.............................. CYCLE   25 ..............................
........................................................................
   1   -212.3096805 -0.212310E+03  0.697E-02    1.02       0.0  T
   2   -212.3096807 -0.249913E-06  0.413E-02    1.02       1.0  T
   3   -212.3096437  0.370144E-04  0.149E-02    1.02       1.0  T
   4   -212.3096825 -0.387811E-04  0.162E-03    1.02       5.6  T
   5   -212.3096826 -0.148056E-06  0.110E-03    1.02       8.2  T
   6   -212.3096828 -0.111796E-06  0.641E-04    1.02      14.1  T
   7   -212.3096828 -0.409011E-07  0.239E-04    1.02      37.9  T
     SCC iter.                  ...        0 min,  0.205 sec
     gradient                   ...        0 min,  0.147 sec
 * total energy  :  -208.2679503 Eh     change       -0.8929575E-03 Eh
   gradient norm :     0.0077120 Eh/α   predicted    -0.6235469E-03 ( -30.17%)
   displ. norm   :     0.6146852 α      lambda       -0.1368175E-02
   maximum displ.:     0.3487020 α      in ANC's #14, #15, #17, ...

........................................................................
.............................. CYCLE   26 ..............................
........................................................................
   1   -212.3181404 -0.212318E+03  0.969E-02    1.02       0.0  T
   2   -212.3181422 -0.185846E-05  0.568E-02    1.02       1.0  T
   3   -212.3181331  0.912389E-05  0.746E-03    1.02       1.2  T
   4   -212.3181432 -0.100521E-04  0.187E-03    1.02       4.8  T
   5   -212.3181435 -0.362943E-06  0.947E-04    1.02       9.6  T
   6   -212.3181435 -0.145757E-07  0.573E-04    1.02      15.8  T
     SCC iter.                  ...        0 min,  0.176 sec
     gradient                   ...        0 min,  0.148 sec
 * total energy  :  -208.2691259 Eh     change       -0.1175525E-02 Eh
   gradient norm :     0.0059064 Eh/α   predicted    -0.9425629E-03 ( -19.82%)
   displ. norm   :     0.7502918 α      lambda       -0.1473891E-02
   maximum displ.:     0.4173840 α      in ANC's #14, #15, #17, ...

........................................................................
.............................. CYCLE   27 ..............................
........................................................................
   1   -212.3214449 -0.212321E+03  0.128E-01    1.02       0.0  T
   2   -212.3214475 -0.263948E-05  0.751E-02    1.02       1.0  T
   3   -212.3214336  0.139462E-04  0.961E-03    1.02       1.0  T
   4   -212.3214489 -0.153459E-04  0.240E-03    1.02       3.8  T
   5   -212.3214494 -0.479788E-06  0.134E-03    1.02       6.8  T
   6   -212.3214494 -0.203739E-07  0.840E-04    1.02      10.8  T
   7   -212.3214495 -0.901788E-07  0.301E-04    1.02      30.1  T
     SCC iter.                  ...        0 min,  0.205 sec
     gradient                   ...        0 min,  0.147 sec
 * total energy  :  -208.2702530 Eh     change       -0.1127142E-02 Eh
   gradient norm :     0.0086187 Eh/α   predicted    -0.1151800E-02 (   2.19%)
   displ. norm   :     0.7259089 α      lambda       -0.1398120E-02
   maximum displ.:     0.4158744 α      in ANC's #14, #15, #16, ...

........................................................................
.............................. CYCLE   28 ..............................
........................................................................
   1   -212.3196980 -0.212320E+03  0.126E-01    1.03       0.0  T
   2   -212.3197004 -0.235543E-05  0.743E-02    1.03       1.0  T
   3   -212.3196810  0.193865E-04  0.112E-02    1.03       1.0  T
   4   -212.3197021 -0.211757E-04  0.215E-03    1.03       4.2  T
   5   -212.3197024 -0.229646E-06  0.136E-03    1.03       6.7  T
   6   -212.3197024 -0.301131E-07  0.919E-04    1.03       9.9  T
   7   -212.3197025 -0.132455E-06  0.241E-04    1.03      37.5  T
     SCC iter.                  ...        0 min,  0.205 sec
     gradient                   ...        0 min,  0.148 sec
 * total energy  :  -208.2712545 Eh     change       -0.1001536E-02 Eh
   gradient norm :     0.0075110 Eh/α   predicted    -0.1067428E-02 (   6.58%)
   displ. norm   :     0.6677150 α      lambda       -0.8485971E-03
   maximum displ.:     0.3869105 α      in ANC's #14, #15, #17, ...

........................................................................
.............................. CYCLE   29 ..............................
........................................................................
   1   -212.3191549 -0.212319E+03  0.101E-01    1.03       0.0  T
   2   -212.3191567 -0.181270E-05  0.594E-02    1.03       1.0  T
   3   -212.3191417  0.149714E-04  0.986E-03    1.03       1.0  T
   4   -212.3191581 -0.163715E-04  0.174E-03    1.03       5.2  T
   5   -212.3191582 -0.854861E-07  0.122E-03    1.03       7.4  T
   6   -212.3191583 -0.117303E-06  0.689E-04    1.03      13.1  T
   7   -212.3191584 -0.801745E-07  0.213E-04    1.03      42.5  T
     SCC iter.                  ...        0 min,  0.206 sec
     gradient                   ...        0 min,  0.148 sec
 * total energy  :  -208.2719692 Eh     change       -0.7146978E-03 Eh
   gradient norm :     0.0063426 Eh/α   predicted    -0.6134697E-03 ( -14.16%)
   displ. norm   :     0.6735033 α      lambda       -0.7762087E-03
   maximum displ.:     0.3983985 α      in ANC's #14, #15, #17, ...

........................................................................
.............................. CYCLE   30 ..............................
........................................................................
   1   -212.3256474 -0.212326E+03  0.987E-02    1.03       0.0  T
   2   -212.3256497 -0.230763E-05  0.577E-02    1.03       1.0  T
   3   -212.3256224  0.273455E-04  0.131E-02    1.03       1.0  T
   4   -212.3256513 -0.289068E-04  0.264E-03    1.03       3.4  T
   5   -212.3256520 -0.700342E-06  0.127E-03    1.03       7.1  T
   6   -212.3256520 -0.307807E-07  0.823E-04    1.03      11.0  T
   7   -212.3256521 -0.962580E-07  0.273E-04    1.03      33.2  T
     SCC iter.                  ...        0 min,  0.204 sec
     gradient                   ...        0 min,  0.148 sec
 * total energy  :  -208.2726036 Eh     change       -0.6343928E-03 Eh
   gradient norm :     0.0045339 Eh/α   predicted    -0.5641523E-03 ( -11.07%)
   displ. norm   :     0.7171661 α      lambda       -0.6164172E-03
   maximum displ.:     0.4208175 α      in ANC's #14, #15, #17, ...

........................................................................
.............................. CYCLE   31 ..............................
........................................................................
   1   -212.3240880 -0.212324E+03  0.102E-01    1.04       0.0  T
   2   -212.3240906 -0.262554E-05  0.599E-02    1.04       1.0  T
   3   -212.3240673  0.233296E-04  0.120E-02    1.04       1.0  T
   4   -212.3240925 -0.251840E-04  0.239E-03    1.04       3.8  T
   5   -212.3240928 -0.361513E-06  0.147E-03    1.04       6.2  T
   6   -212.3240929 -0.122018E-06  0.783E-04    1.04      11.6  T
   7   -212.3240930 -0.103650E-06  0.239E-04    1.04      37.9  T
     SCC iter.                  ...        0 min,  0.205 sec
     gradient                   ...        0 min,  0.147 sec
 * total energy  :  -208.2731023 Eh     change       -0.4986853E-03 Eh
   gradient norm :     0.0046852 Eh/α   predicted    -0.4667348E-03 (  -6.41%)
   displ. norm   :     0.6654217 α      lambda       -0.5118945E-03
   maximum displ.:     0.3923869 α      in ANC's #14, #15, #9, ...

........................................................................
.............................. CYCLE   32 ..............................
........................................................................
   1   -212.3315523 -0.212332E+03  0.949E-02    1.04       0.0  T
   2   -212.3315553 -0.305321E-05  0.554E-02    1.04       1.0  T
   3   -212.3315356  0.196810E-04  0.109E-02    1.04       1.0  T
   4   -212.3315568 -0.211730E-04  0.277E-03    1.04       3.3  T
   5   -212.3315575 -0.683193E-06  0.148E-03    1.04       6.1  T
   6   -212.3315576 -0.110512E-06  0.812E-04    1.04      11.1  T
   7   -212.3315577 -0.826946E-07  0.286E-04    1.04      31.6  T
     SCC iter.                  ...        0 min,  0.205 sec
     gradient                   ...        0 min,  0.147 sec
 * total energy  :  -208.2734894 Eh     change       -0.3870852E-03 Eh
   gradient norm :     0.0050839 Eh/α   predicted    -0.3692791E-03 (  -4.60%)
   displ. norm   :     0.6573421 α      lambda       -0.3577442E-03
   maximum displ.:     0.3842595 α      in ANC's #14, #15, #9, ...

........................................................................
.............................. CYCLE   33 ..............................
........................................................................
   1   -212.3277516 -0.212328E+03  0.934E-02    1.04       0.0  T
   2   -212.3277542 -0.251699E-05  0.547E-02    1.04       1.0  T
   3   -212.3277379  0.162209E-04  0.994E-03    1.04       1.0  T
   4   -212.3277556 -0.177085E-04  0.227E-03    1.04       4.0  T
   5   -212.3277559 -0.303683E-06  0.141E-03    1.04       6.4  T
   6   -212.3277561 -0.130974E-06  0.704E-04    1.04      12.9  T
   7   -212.3277561 -0.711348E-07  0.223E-04    1.04      40.6  T
     SCC iter.                  ...        0 min,  0.205 sec
     gradient                   ...        0 min,  0.148 sec
 * total energy  :  -208.2737589 Eh     change       -0.2694926E-03 Eh
   gradient norm :     0.0042880 Eh/α   predicted    -0.2561651E-03 (  -4.95%)
   displ. norm   :     0.5245540 α      lambda       -0.2529725E-03
   maximum displ.:     0.2941454 α      in ANC's #14, #15, #9, ...

........................................................................
.............................. CYCLE   34 ..............................
........................................................................
   1   -212.3305014 -0.212331E+03  0.745E-02    1.04       0.0  T
   2   -212.3305034 -0.206849E-05  0.436E-02    1.04       1.0  T
   3   -212.3304962  0.722744E-05  0.656E-03    1.04       1.4  T
   4   -212.3305044 -0.815801E-05  0.186E-03    1.04       4.9  T
   5   -212.3305045 -0.138628E-06  0.136E-03    1.04       6.7  T
   6   -212.3305047 -0.175927E-06  0.620E-04    1.04      14.6  T
   7   -212.3305047 -0.556979E-07  0.204E-04    1.04      44.3  T
     SCC iter.                  ...        0 min,  0.207 sec
     gradient                   ...        0 min,  0.147 sec
 * total energy  :  -208.2739586 Eh     change       -0.1996893E-03 Eh
   gradient norm :     0.0040258 Eh/α   predicted    -0.1612929E-03 ( -19.23%)
   displ. norm   :     0.4713022 α      lambda       -0.2031254E-03
   maximum displ.:     0.2445149 α      in ANC's #14, #9, #15, ...

........................................................................
.............................. CYCLE   35 ..............................
........................................................................
   1   -212.3322101 -0.212332E+03  0.676E-02    1.04       0.0  T
   2   -212.3322118 -0.162120E-05  0.396E-02    1.04       1.0  T
   3   -212.3322065  0.526243E-05  0.576E-03    1.04       1.6  T
   4   -212.3322125 -0.602449E-05  0.157E-03    1.04       5.8  T
   5   -212.3322126 -0.968267E-07  0.106E-03    1.04       8.6  T
   6   -212.3322127 -0.837974E-07  0.526E-04    1.04      17.2  T
   7   -212.3322127 -0.389023E-07  0.203E-04    1.04      44.5  T
     SCC iter.                  ...        0 min,  0.205 sec
     gradient                   ...        0 min,  0.147 sec
 * total energy  :  -208.2741193 Eh     change       -0.1607533E-03 Eh
   gradient norm :     0.0031553 Eh/α   predicted    -0.1241243E-03 ( -22.79%)
   displ. norm   :     0.4052364 α      lambda       -0.1661446E-03
   maximum displ.:     0.1760084 α      in ANC's #9, #14, #7, ...

........................................................................
.............................. CYCLE   36 ..............................
........................................................................
   1   -212.3329055 -0.212333E+03  0.593E-02    1.04       0.0  T
   2   -212.3329066 -0.113791E-05  0.348E-02    1.04       1.0  T
   3   -212.3329002  0.643146E-05  0.663E-03    1.04       1.4  T
   4   -212.3329071 -0.698175E-05  0.161E-03    1.04       5.6  T
   5   -212.3329073 -0.142285E-06  0.101E-03    1.04       8.9  T
   6   -212.3329074 -0.859933E-07  0.492E-04    1.04      18.4  T
   7   -212.3329074 -0.407304E-07  0.157E-04    1.04      57.6  T
     SCC iter.                  ...        0 min,  0.206 sec
     gradient                   ...        0 min,  0.148 sec
 * total energy  :  -208.2742493 Eh     change       -0.1299288E-03 Eh
   gradient norm :     0.0029573 Eh/α   predicted    -0.9671691E-04 ( -25.56%)
   displ. norm   :     0.3411534 α      lambda       -0.1365398E-03
   maximum displ.:     0.1656878 α      in ANC's #9, #7, #8, ...

........................................................................
.............................. CYCLE   37 ..............................
........................................................................
   1   -212.3330480 -0.212333E+03  0.500E-02    1.04       0.0  T
   2   -212.3330486 -0.634977E-06  0.294E-02    1.04       1.0  T
   3   -212.3330424  0.620834E-05  0.678E-03    1.04       1.3  T
   4   -212.3330489 -0.656836E-05  0.137E-03    1.04       6.6  T
   5   -212.3330491 -0.151450E-06  0.768E-04    1.04      11.8  T
   6   -212.3330491 -0.399290E-07  0.385E-04    1.04      23.5  T
     SCC iter.                  ...        0 min,  0.178 sec
     gradient                   ...        0 min,  0.146 sec
 * total energy  :  -208.2743547 Eh     change       -0.1054018E-03 Eh
   gradient norm :     0.0032745 Eh/α   predicted    -0.7621644E-04 ( -27.69%)
   displ. norm   :     0.3048139 α      lambda       -0.1197425E-03
   maximum displ.:     0.1542504 α      in ANC's #9, #7, #8, ...

........................................................................
.............................. CYCLE   38 ..............................
........................................................................
   1   -212.3323520 -0.212332E+03  0.440E-02    1.04       0.0  T
   2   -212.3323524 -0.429949E-06  0.258E-02    1.04       1.0  T
   3   -212.3323454  0.700757E-05  0.689E-03    1.04       1.3  T
   4   -212.3323527 -0.726053E-05  0.139E-03    1.04       6.5  T
   5   -212.3323529 -0.235915E-06  0.616E-04    1.04      14.7  T
   6   -212.3323529 -0.143559E-07  0.367E-04    1.04      24.7  T
     SCC iter.                  ...        0 min,  0.176 sec
     gradient                   ...        0 min,  0.147 sec
 * total energy  :  -208.2744470 Eh     change       -0.9238347E-04 Eh
   gradient norm :     0.0034933 Eh/α   predicted    -0.6543853E-04 ( -29.17%)
   displ. norm   :     0.3103226 α      lambda       -0.1209398E-03
   maximum displ.:     0.1493283 α      in ANC's #9, #7, #8, ...

........................................................................
.............................. CYCLE   39 ..............................
........................................................................
   1   -212.3317140 -0.212332E+03  0.431E-02    1.04       0.0  T
   2   -212.3317144 -0.381144E-06  0.253E-02    1.04       1.0  T
   3   -212.3317064  0.801278E-05  0.711E-03    1.04       1.3  T
   4   -212.3317146 -0.821081E-05  0.146E-03    1.04       6.2  T
   5   -212.3317149 -0.303319E-06  0.568E-04    1.04      15.9  T
   6   -212.3317149 -0.202839E-07  0.337E-04    1.04      26.8  T
     SCC iter.                  ...        0 min,  0.177 sec
     gradient                   ...        0 min,  0.147 sec
 * total energy  :  -208.2745401 Eh     change       -0.9307914E-04 Eh
   gradient norm :     0.0036472 Eh/α   predicted    -0.6629543E-04 ( -28.78%)
   displ. norm   :     0.3238477 α      lambda       -0.1234209E-03
   maximum displ.:     0.1504313 α      in ANC's #9, #7, #8, ...

........................................................................
.............................. CYCLE   40 ..............................
........................................................................
   1   -212.3303068 -0.212330E+03  0.427E-02    1.04       0.0  T
   2   -212.3303073 -0.519566E-06  0.251E-02    1.04       1.0  T
   3   -212.3302991  0.825190E-05  0.671E-03    1.04       1.3  T
   4   -212.3303073 -0.821438E-05  0.184E-03    1.04       4.9  T
   5   -212.3303079 -0.583859E-06  0.575E-04    1.04      15.7  T
   6   -212.3303079 -0.227708E-07  0.335E-04    1.04      27.0  T
     SCC iter.                  ...        0 min,  0.176 sec
     gradient                   ...        0 min,  0.147 sec
 * total energy  :  -208.2746368 Eh     change       -0.9671038E-04 Eh
   gradient norm :     0.0037926 Eh/α   predicted    -0.6818270E-04 ( -29.50%)
   displ. norm   :     0.3435823 α      lambda       -0.1308842E-03
   maximum displ.:     0.1574512 α      in ANC's #9, #7, #8, ...

........................................................................
.............................. CYCLE   41 ..............................
........................................................................
   1   -212.3292961 -0.212329E+03  0.441E-02    1.04       0.0  T
   2   -212.3292967 -0.576167E-06  0.258E-02    1.04       1.0  T
   3   -212.3292905  0.614833E-05  0.546E-03    1.04       1.7  T
   4   -212.3292967 -0.613707E-05  0.170E-03    1.04       5.3  T
   5   -212.3292972 -0.493687E-06  0.614E-04    1.04      14.8  T
   6   -212.3292972 -0.231296E-07  0.363E-04    1.04      24.9  T
     SCC iter.                  ...        0 min,  0.177 sec
     gradient                   ...        0 min,  0.147 sec
 * total energy  :  -208.2747415 Eh     change       -0.1047109E-03 Eh
   gradient norm :     0.0041071 Eh/α   predicted    -0.7317290E-04 ( -30.12%)
   displ. norm   :     0.3784480 α      lambda       -0.1499945E-03
   maximum displ.:     0.1812961 α      in ANC's #9, #7, #8, ...

........................................................................
.............................. CYCLE   42 ..............................
........................................................................
   1   -212.3283079 -0.212328E+03  0.488E-02    1.04       0.0  T
   2   -212.3283086 -0.641594E-06  0.286E-02    1.04       1.0  T
   3   -212.3283045  0.408609E-05  0.431E-03    1.04       2.1  T
   4   -212.3283086 -0.416965E-05  0.151E-03    1.04       6.0  T
   5   -212.3283090 -0.348252E-06  0.671E-04    1.04      13.5  T
   6   -212.3283090 -0.211577E-07  0.361E-04    1.04      25.1  T
     SCC iter.                  ...        0 min,  0.179 sec
     gradient                   ...        0 min,  0.147 sec
 * total energy  :  -208.2748625 Eh     change       -0.1209583E-03 Eh
   gradient norm :     0.0048247 Eh/α   predicted    -0.8573993E-04 ( -29.12%)
   displ. norm   :     0.4388912 α      lambda       -0.1714237E-03
   maximum displ.:     0.2184596 α      in ANC's #9, #7, #8, ...
 * RMSD in coord.:     0.7603735 α      energy gain  -0.1126286E-01 Eh

generating ANC from model Hessian ...
Using Lindh-Hessian (1995)
 Shifting diagonal of input Hessian by    9.9942393505652385E-003
 Lowest  eigenvalues of input Hessian
    0.000000    0.000000    0.000000    0.000000    0.000000    0.000000
    0.010000    0.010002    0.010005    0.010008    0.010010    0.010015
    0.010044    0.010059    0.010142    0.010226    0.010550    0.010616
 Highest eigenvalues
    2.271169    2.273277    2.690870    2.693291    3.027928    3.031078


........................................................................
.............................. CYCLE   43 ..............................
........................................................................
   1   -212.3280228 -0.212328E+03  0.542E-02    1.04       0.0  T
   2   -212.3280236 -0.764839E-06  0.319E-02    1.04       1.0  T
   3   -212.3280167  0.688362E-05  0.579E-03    1.04       1.6  T
   4   -212.3280239 -0.718321E-05  0.166E-03    1.04       5.5  T
   5   -212.3280242 -0.346046E-06  0.776E-04    1.04      11.7  T
   6   -212.3280242 -0.230313E-07  0.434E-04    1.04      20.9  T
     SCC iter.                  ...        0 min,  0.179 sec
     gradient                   ...        0 min,  0.146 sec
 * total energy  :  -208.2749997 Eh     change       -0.1372373E-03 Eh
   gradient norm :     0.0049754 Eh/α   predicted     0.0000000E+00 (-100.00%)
   displ. norm   :     0.0522596 α      lambda       -0.6849338E-04
   maximum displ.:     0.0163909 α      in ANC's #7, #21, #16, ...

........................................................................
.............................. CYCLE   44 ..............................
........................................................................
   1   -212.3302838 -0.212330E+03  0.187E-02    1.04       0.0  T
   2   -212.3302840 -0.148749E-06  0.112E-02    1.04       1.0  T
   3   -212.3302809  0.303350E-05  0.380E-03    1.04       2.4  T
   4   -212.3302839 -0.298121E-05  0.120E-03    1.04       7.6  T
   5   -212.3302842 -0.247609E-06  0.370E-04    1.04      24.5  T
   6   -212.3302842 -0.893763E-08  0.211E-04    1.04      43.0  T
     SCC iter.                  ...        0 min,  0.178 sec
     gradient                   ...        0 min,  0.147 sec
 * total energy  :  -208.2750503 Eh     change       -0.5052904E-04 Eh
   gradient norm :     0.0030614 Eh/α   predicted    -0.3852700E-04 ( -23.75%)
   displ. norm   :     0.1591341 α      lambda       -0.1685610E-03
   maximum displ.:     0.0564144 α      in ANC's #10, #21, #11, ...

........................................................................
.............................. CYCLE   45 ..............................
........................................................................
   1   -212.3350365 -0.212335E+03  0.509E-02    1.04       0.0  T
   2   -212.3350371 -0.601916E-06  0.303E-02    1.04       1.0  T
   3   -212.3349975  0.395638E-04  0.140E-02    1.04       1.0  T
   4   -212.3350373 -0.397993E-04  0.330E-03    1.04       2.7  T
   5   -212.3350391 -0.176003E-05  0.884E-04    1.04      10.2  T
   6   -212.3350391 -0.383694E-07  0.520E-04    1.04      17.4  T
   7   -212.3350391  0.266039E-08  0.360E-04    1.04      25.1  T
     SCC iter.                  ...        0 min,  0.205 sec
     gradient                   ...        0 min,  0.147 sec
 * total energy  :  -208.2750335 Eh     change        0.1674172E-04 Eh
   gradient norm :     0.0057888 Eh/α   predicted    -0.8642005E-04 (-616.20%)
   displ. norm   :     0.0629906 α      lambda       -0.1763736E-03
   maximum displ.:     0.0334984 α      in ANC's #11, #17, #19, ...

........................................................................
.............................. CYCLE   46 ..............................
........................................................................
   1   -212.3332216 -0.212333E+03  0.397E-02    1.04       0.0  T
   2   -212.3332217 -0.997228E-07  0.237E-02    1.04       1.0  T
   3   -212.3332177  0.408552E-05  0.488E-03    1.04       1.9  T
   4   -212.3332219 -0.421908E-05  0.922E-04    1.04       9.8  T
   5   -212.3332220 -0.905872E-07  0.486E-04    1.04      18.6  T
   6   -212.3332220 -0.116214E-07  0.280E-04    1.04      32.3  T
     SCC iter.                  ...        0 min,  0.178 sec
     gradient                   ...        0 min,  0.147 sec
 * total energy  :  -208.2751191 Eh     change       -0.8562231E-04 Eh
   gradient norm :     0.0031851 Eh/α   predicted    -0.8854460E-04 (   3.41%)
   displ. norm   :     0.0654445 α      lambda       -0.7567157E-04
   maximum displ.:     0.0200874 α      in ANC's #12, #7, #16, ...

........................................................................
.............................. CYCLE   47 ..............................
........................................................................
   1   -212.3301761 -0.212330E+03  0.324E-02    1.04       0.0  T
   2   -212.3301762 -0.863877E-07  0.195E-02    1.04       1.0  T
   3   -212.3301694  0.675137E-05  0.607E-03    1.04       1.5  T
   4   -212.3301762 -0.683228E-05  0.126E-03    1.04       7.2  T
   5   -212.3301765 -0.241893E-06  0.440E-04    1.04      20.6  T
   6   -212.3301765 -0.141213E-07  0.254E-04    1.04      35.7  T
     SCC iter.                  ...        0 min,  0.178 sec
     gradient                   ...        0 min,  0.147 sec
 * total energy  :  -208.2751031 Eh     change        0.1605836E-04 Eh
   gradient norm :     0.0029578 Eh/α   predicted    -0.3799889E-04 (-336.63%)
   displ. norm   :     0.0598046 α      lambda       -0.1042237E-03
   maximum displ.:     0.0230965 α      in ANC's #17, #12, #21, ...

........................................................................
.............................. CYCLE   48 ..............................
........................................................................
   1   -212.3299985 -0.212330E+03  0.262E-02    1.04       0.0  T
   2   -212.3299985  0.316468E-07  0.157E-02    1.04       1.0  T
   3   -212.3299940  0.449978E-05  0.513E-03    1.04       1.8  T
   4   -212.3299986 -0.464772E-05  0.568E-04    1.04      15.9  T
   5   -212.3299986 -0.354997E-07  0.316E-04    1.04      28.7  T
   6   -212.3299986 -0.544483E-08  0.150E-04    1.04      60.2  T
     SCC iter.                  ...        0 min,  0.177 sec
     gradient                   ...        0 min,  0.146 sec
 * total energy  :  -208.2751607 Eh     change       -0.5766205E-04 Eh
   gradient norm :     0.0015692 Eh/α   predicted    -0.5229770E-04 (  -9.30%)
   displ. norm   :     0.1422467 α      lambda       -0.4465938E-04
   maximum displ.:     0.0709091 α      in ANC's #10, #7, #21, ...

........................................................................
.............................. CYCLE   49 ..............................
........................................................................
   1   -212.3310462 -0.212331E+03  0.389E-02    1.04       0.0  T
   2   -212.3310463 -0.101218E-06  0.231E-02    1.04       1.0  T
   3   -212.3310374  0.891522E-05  0.680E-03    1.04       1.3  T
   4   -212.3310466 -0.920623E-05  0.106E-03    1.04       8.6  T
   5   -212.3310467 -0.120661E-06  0.510E-04    1.04      17.8  T
   6   -212.3310467 -0.213581E-08  0.312E-04    1.04      29.0  T
     SCC iter.                  ...        0 min,  0.178 sec
     gradient                   ...        0 min,  0.147 sec
 * total energy  :  -208.2751738 Eh     change       -0.1309513E-04 Eh
   gradient norm :     0.0027129 Eh/α   predicted    -0.2253071E-04 (  72.05%)
   displ. norm   :     0.1623115 α      lambda       -0.8255642E-04
   maximum displ.:     0.0733018 α      in ANC's #7, #10, #8, ...

........................................................................
.............................. CYCLE   50 ..............................
........................................................................
   1   -212.3309774 -0.212331E+03  0.316E-02    1.04       0.0  T
   2   -212.3309775 -0.800027E-07  0.187E-02    1.04       1.0  T
   3   -212.3309715  0.596809E-05  0.527E-03    1.04       1.7  T
   4   -212.3309777 -0.617572E-05  0.894E-04    1.04      10.1  T
   5   -212.3309777 -0.724069E-07  0.479E-04    1.04      18.9  T
   6   -212.3309777 -0.598382E-08  0.275E-04    1.04      33.0  T
     SCC iter.                  ...        0 min,  0.177 sec
     gradient                   ...        0 min,  0.148 sec
 * total energy  :  -208.2752046 Eh     change       -0.3077171E-04 Eh
   gradient norm :     0.0031845 Eh/α   predicted    -0.4236666E-04 (  37.68%)
   displ. norm   :     0.1341270 α      lambda       -0.9776629E-04
   maximum displ.:     0.0646217 α      in ANC's #10, #7, #8, ...

........................................................................
.............................. CYCLE   51 ..............................
........................................................................
   1   -212.3285739 -0.212329E+03  0.314E-02    1.04       0.0  T
   2   -212.3285742 -0.253949E-06  0.186E-02    1.04       1.0  T
   3   -212.3285725  0.165305E-05  0.316E-03    1.04       2.9  T
   4   -212.3285742 -0.170620E-05  0.874E-04    1.04      10.4  T
   5   -212.3285743 -0.111111E-06  0.395E-04    1.04      22.9  T
   6   -212.3285743 -0.125569E-07  0.235E-04    1.04      38.5  T
     SCC iter.                  ...        0 min,  0.177 sec
     gradient                   ...        0 min,  0.147 sec
 * total energy  :  -208.2752659 Eh     change       -0.6130831E-04 Eh
   gradient norm :     0.0016902 Eh/α   predicted    -0.4976314E-04 ( -18.83%)
   displ. norm   :     0.2191419 α      lambda       -0.4073987E-04
   maximum displ.:     0.1172826 α      in ANC's #10, #7, #8, ...

........................................................................
.............................. CYCLE   52 ..............................
........................................................................
   1   -212.3284259 -0.212328E+03  0.290E-02    1.04       0.0  T
   2   -212.3284261 -0.196325E-06  0.170E-02    1.04       1.0  T
   3   -212.3284241  0.195502E-05  0.350E-03    1.04       2.6  T
   4   -212.3284261 -0.200460E-05  0.885E-04    1.04      10.2  T
   5   -212.3284262 -0.108009E-06  0.385E-04    1.04      23.5  T
   6   -212.3284262 -0.852722E-08  0.217E-04    1.04      41.7  T
     SCC iter.                  ...        0 min,  0.178 sec
     gradient                   ...        0 min,  0.149 sec
 * total energy  :  -208.2753114 Eh     change       -0.4549520E-04 Eh
   gradient norm :     0.0019388 Eh/α   predicted    -0.2080660E-04 ( -54.27%)
   displ. norm   :     0.2946960 α      lambda       -0.4663329E-04
   maximum displ.:     0.1589098 α      in ANC's #10, #7, #8, ...

........................................................................
.............................. CYCLE   53 ..............................
........................................................................
   1   -212.3296595 -0.212330E+03  0.345E-02    1.04       0.0  T
   2   -212.3296598 -0.242103E-06  0.203E-02    1.04       1.0  T
   3   -212.3296563  0.343752E-05  0.453E-03    1.04       2.0  T
   4   -212.3296599 -0.359945E-05  0.926E-04    1.04       9.8  T
   5   -212.3296600 -0.952629E-07  0.436E-04    1.04      20.8  T
   6   -212.3296600 -0.594926E-08  0.252E-04    1.04      35.9  T
     SCC iter.                  ...        0 min,  0.177 sec
     gradient                   ...        0 min,  0.147 sec
 * total energy  :  -208.2753686 Eh     change       -0.5721112E-04 Eh
   gradient norm :     0.0017196 Eh/α   predicted    -0.2422135E-04 ( -57.66%)
   displ. norm   :     0.4707776 α      lambda       -0.6160443E-04
   maximum displ.:     0.2530529 α      in ANC's #10, #7, #8, ...

........................................................................
.............................. CYCLE   54 ..............................
........................................................................
   1   -212.3301486 -0.212330E+03  0.521E-02    1.04       0.0  T
   2   -212.3301492 -0.538997E-06  0.305E-02    1.04       1.0  T
   3   -212.3301416  0.752284E-05  0.667E-03    1.04       1.4  T
   4   -212.3301496 -0.792349E-05  0.132E-03    1.04       6.8  T
   5   -212.3301498 -0.183810E-06  0.643E-04    1.04      14.1  T
   6   -212.3301498 -0.136415E-07  0.351E-04    1.04      25.8  T
     SCC iter.                  ...        0 min,  0.176 sec
     gradient                   ...        0 min,  0.147 sec
 * total energy  :  -208.2754430 Eh     change       -0.7432476E-04 Eh
   gradient norm :     0.0021301 Eh/α   predicted    -0.3383667E-04 ( -54.47%)
   displ. norm   :     0.3525150 α      lambda       -0.6272213E-04
   maximum displ.:     0.1889391 α      in ANC's #10, #7, #8, ...

........................................................................
.............................. CYCLE   55 ..............................
........................................................................
   1   -212.3306969 -0.212331E+03  0.379E-02    1.04       0.0  T
   2   -212.3306972 -0.302050E-06  0.222E-02    1.04       1.0  T
   3   -212.3306941  0.313143E-05  0.407E-03    1.04       2.2  T
   4   -212.3306974 -0.331741E-05  0.959E-04    1.04       9.4  T
   5   -212.3306975 -0.971777E-07  0.454E-04    1.04      19.9  T
   6   -212.3306975 -0.513037E-08  0.240E-04    1.04      37.6  T
     SCC iter.                  ...        0 min,  0.177 sec
     gradient                   ...        0 min,  0.148 sec
 * total energy  :  -208.2754980 Eh     change       -0.5508998E-04 Eh
   gradient norm :     0.0024267 Eh/α   predicted    -0.3526152E-04 ( -35.99%)
   displ. norm   :     0.4857045 α      lambda       -0.8765057E-04
   maximum displ.:     0.2578989 α      in ANC's #10, #7, #8, ...

........................................................................
.............................. CYCLE   56 ..............................
........................................................................
   1   -212.3308784 -0.212331E+03  0.525E-02    1.04       0.0  T
   2   -212.3308790 -0.589530E-06  0.307E-02    1.04       1.0  T
   3   -212.3308748  0.414682E-05  0.467E-03    1.04       1.9  T
   4   -212.3308793 -0.445895E-05  0.124E-03    1.04       7.3  T
   5   -212.3308794 -0.142848E-06  0.629E-04    1.04      14.4  T
   6   -212.3308794 -0.143560E-07  0.312E-04    1.04      29.0  T
     SCC iter.                  ...        0 min,  0.177 sec
     gradient                   ...        0 min,  0.146 sec
 * total energy  :  -208.2755724 Eh     change       -0.7437673E-04 Eh
   gradient norm :     0.0027226 Eh/α   predicted    -0.5416834E-04 ( -27.17%)
   displ. norm   :     0.5087484 α      lambda       -0.8752164E-04
   maximum displ.:     0.2656155 α      in ANC's #10, #7, #8, ...

........................................................................
.............................. CYCLE   57 ..............................
........................................................................
   1   -212.3305472 -0.212331E+03  0.558E-02    1.04       0.0  T
   2   -212.3305479 -0.704104E-06  0.327E-02    1.04       1.0  T
   3   -212.3305454  0.246790E-05  0.375E-03    1.04       2.4  T
   4   -212.3305482 -0.274012E-05  0.125E-03    1.04       7.3  T
   5   -212.3305483 -0.140825E-06  0.700E-04    1.04      12.9  T
   6   -212.3305483 -0.288201E-07  0.294E-04    1.04      30.8  T
     SCC iter.                  ...        0 min,  0.178 sec
     gradient                   ...        0 min,  0.146 sec
 * total energy  :  -208.2756453 Eh     change       -0.7288502E-04 Eh
   gradient norm :     0.0028625 Eh/α   predicted    -0.5508768E-04 ( -24.42%)
   displ. norm   :     0.4759617 α      lambda       -0.7915442E-04
   maximum displ.:     0.2415559 α      in ANC's #10, #7, #8, ...

........................................................................
.............................. CYCLE   58 ..............................
........................................................................
   1   -212.3301339 -0.212330E+03  0.534E-02    1.04       0.0  T
   2   -212.3301346 -0.660076E-06  0.313E-02    1.04       1.0  T
   3   -212.3301335  0.114931E-05  0.300E-03    1.04       3.0  T
   4   -212.3301349 -0.141858E-05  0.100E-03    1.04       9.0  T
   5   -212.3301349 -0.388402E-07  0.735E-04    1.04      12.3  T
   6   -212.3301350 -0.536216E-07  0.267E-04    1.04      33.9  T
     SCC iter.                  ...        0 min,  0.176 sec
     gradient                   ...        0 min,  0.146 sec
 * total energy  :  -208.2757103 Eh     change       -0.6499096E-04 Eh
   gradient norm :     0.0027121 Eh/α   predicted    -0.4854505E-04 ( -25.30%)
   displ. norm   :     0.4432351 α      lambda       -0.7135335E-04
   maximum displ.:     0.2223750 α      in ANC's #7, #10, #6, ...

........................................................................
.............................. CYCLE   59 ..............................
........................................................................
   1   -212.3296626 -0.212330E+03  0.505E-02    1.04       0.0  T
   2   -212.3296632 -0.611280E-06  0.296E-02    1.04       1.0  T
   3   -212.3296617  0.144453E-05  0.328E-03    1.04       2.8  T
   4   -212.3296635 -0.175139E-05  0.850E-04    1.04      10.7  T
   5   -212.3296635 -0.996533E-08  0.646E-04    1.04      14.0  T
   6   -212.3296635 -0.408038E-07  0.317E-04    1.04      28.5  T
     SCC iter.                  ...        0 min,  0.176 sec
     gradient                   ...        0 min,  0.147 sec
 * total energy  :  -208.2757677 Eh     change       -0.5737276E-04 Eh
   gradient norm :     0.0024530 Eh/α   predicted    -0.4268587E-04 ( -25.60%)
   displ. norm   :     0.4101363 α      lambda       -0.6206406E-04
   maximum displ.:     0.2062258 α      in ANC's #7, #10, #6, ...

........................................................................
.............................. CYCLE   60 ..............................
........................................................................
   1   -212.3290215 -0.212329E+03  0.466E-02    1.04       0.0  T
   2   -212.3290220 -0.504271E-06  0.273E-02    1.04       1.0  T
   3   -212.3290183  0.364377E-05  0.434E-03    1.04       2.1  T
   4   -212.3290222 -0.384062E-05  0.125E-03    1.04       7.3  T
   5   -212.3290224 -0.196078E-06  0.663E-04    1.04      13.7  T
   6   -212.3290224 -0.290702E-07  0.333E-04    1.04      27.2  T
     SCC iter.                  ...        0 min,  0.177 sec
     gradient                   ...        0 min,  0.147 sec
 * total energy  :  -208.2758165 Eh     change       -0.4878042E-04 Eh
[...]
 121: 10.81 122: 11.17 123: 10.97 124: 10.97 125: 10.87 126: 10.43 127: 10.08 128: 10.41
 129:  9.96 130: 10.28 131:  3.93 132:  3.35 133: 11.08 134:  2.71 135: 11.17 136: 11.26
 137: 11.46 138: 11.71 139: 11.55 140: 11.02 141: 11.02 142: 10.71 143: 10.69 144:  2.44
 145:  2.09 146:  3.09 147: 10.77 148: 10.41 149: 10.81 150: 10.01 151: 10.43 152: 10.39
 153: 11.38 154: 11.21 155: 11.20 156: 11.28 157: 11.31 158: 11.30 159: 11.62 160: 11.57
 161: 11.58 162: 11.59 163:  3.69 164:  3.70 165:  3.85 166:  3.85 167:  3.86 168:  3.88
 169:  4.23 170:  4.23 171:  4.34 172:  4.33 173:  4.41 174:  4.42 175:  3.80 176:  3.80
 177:  3.74 178:  3.77 179:  3.69 180:  3.68 181:  4.04 182:  4.02 183:  3.72 184:  3.68
 185:  3.72 186:  3.72 187:  3.78 188:  3.78 189:  3.43 190:  3.43 191:  3.38 192:  3.39
 193:  3.37 194:  3.37 195: 11.37 196: 11.43 197: 10.99 198: 11.05 199:  6.74 200:  6.93
 201:  6.79 202:  8.77 203:  8.87 204:  9.17 205: 10.90 206: 10.59 207:  8.85 208:  8.66
 209:  9.03 210:  8.99 211:  8.68 212:  8.48 213:  9.09 214:  9.13 215:  8.91 216: 10.71
 217: 10.73 218: 10.25 219:  9.33 220:  9.31 221:  1.80 222:  1.78 223:  1.99 224:  1.85
 225:  1.85 226:  1.92 227:  2.16 228:  2.16 229:  2.16 230:  1.98 231:  1.92 232:  1.92
 233:  7.17 234:  7.16 235:  6.04 236:  5.41 237:  5.43 238:  6.30 239:  6.69 240:  7.23
 241:  7.19 242:  5.63 243:  7.64 244:  7.25 245:  6.95 246:  6.63 247:  5.99 248:  6.50
 249:  7.01 250:  9.88 251:  9.53 252:  9.17 253:  8.79 254:  8.51 255:  8.57 256:  7.87
 257:  7.99 258:  8.08 259:  8.59 260:  8.61 261:  8.62 262: 11.77 263: 11.34 264: 11.49
 265: 10.99 266: 10.90 267: 11.97 268: 11.01 269: 10.74 270: 10.88 271: 11.20 272: 11.24
 273: 10.19 274: 10.58 275: 10.47 276: 10.99 277:  9.57 278:  9.64 279: 10.83 280: 11.33
 281: 11.27 282: 11.52 283: 10.80 284: 10.74 285: 10.68 286: 10.66 287: 10.62 288: 11.57
 289: 11.69 290: 11.62 291: 11.67 292: 11.67 293: 11.44 294: 11.45 295: 11.43 296: 11.82
 297: 11.81 298: 11.80 299: 11.64 300: 11.83 301: 11.67 302: 11.79 303: 11.65 304: 11.64
 305: 11.62 306: 11.46 307: 11.46 308: 11.77 309: 11.69 310: 11.73 311: 11.74 312: 11.65
 313: 11.63 314: 11.68 315: 11.61 316: 11.61 317: 11.68 318: 11.72 319: 11.72 320: 11.77
 321: 11.72 322: 11.72 323: 12.01 324: 12.01 325: 12.01 326: 12.01 327: 12.01 328: 12.01
 329:  1.80 330:  1.80 331:  1.80 332:  1.80 333:  1.80 334:  1.80 335:  1.81 336:  1.81
 337:  1.80 338:  1.80 339:  1.81 340:  1.81 341:  1.81 342:  1.81 343:  1.98 344:  1.98
 345:  1.82 346:  1.82 347:  1.82 348:  1.82 349:  1.82 350:  1.82 351:  1.97 352:  1.97
 353:  1.97 354:  1.97 355:  1.96 356:  1.96 357:  1.96 358:  1.96 359:  1.96 360:  1.96
 361:  1.90 362:  1.89 363:  1.89 364:  1.89 365:  1.89 366:  1.89
 IR intensities (km·mol⁻¹)
   1:  7.57   2: 38.56   3: 10.15   4: 16.17   5:  5.60   6: 12.40   7:  1.84   8: 19.27
   9:  2.50  10:  0.53  11:  0.23  12:  0.39  13:  3.85  14:  7.55  15:  3.51  16:  1.07
  17:  0.26  18:  9.59  19: 16.59  20: 10.92  21: 19.79  22:  7.77  23:  2.14  24: 51.63
  25:  6.02  26: 53.19  27: 30.33  28: 47.52  29: 16.26  30:130.25  31: 28.25  32: 12.06
  33:  6.78  34:  8.74  35:  2.85  36:  5.75  37:  5.06  38:  0.86  39:  1.08  40:  0.95
  41:  0.51  42:  5.55  43:  3.73  44:  6.67  45:  4.27  46:  4.08  47:  6.19  48:  6.72
  49:  5.41  50:  2.98  51: 23.78  52: 18.89  53:  6.86  54: 19.38  55:  2.32  56: 11.80
  57: 16.90  58: 12.32  59: 34.71  60:  0.77  61:  8.87  62: 14.84  63: 11.45  64: 12.01
  65: 41.11  66: 25.71  67: 29.60  68: 19.27  69:  8.25  70: 23.48  71: 21.15  72: 15.96
  73: 33.09  74: 53.59  75: 28.42  76: 16.56  77:  1.34  78:  1.22  79:  1.19  80:  0.38
  81:  2.38  82: 27.91  83:  5.72  84:  5.15  85: 21.48  86:  3.09  87:  5.46  88:  0.11
  89:  0.19  90:  0.45  91:  0.30  92:  1.58  93:  2.86  94:  5.99  95:  3.07  96:  2.72
  97:  2.54  98:  1.11  99:  0.30 100:  7.13 101:  4.40 102:  1.09 103:  1.14 104:  4.98
 105:  1.60 106: 25.00 107: 13.75 108: 45.01 109:  4.82 110:  3.55 111:  5.44 112: 38.93
 113:  8.74 114:  3.15 115:  1.06 116:  7.80 117:  3.42 118:  0.31 119:  0.46 120:  2.00
 121: 99.50 122: 10.55 123:  2.17 124:  0.06 125: 13.18 126: 17.26 127:  3.43 128:  2.73
 129: 15.10 130: 28.22 131:  5.51 132:  1.94 133: 11.97 134:264.10 135:  2.34 136:  9.07
 137:  0.63 138:  0.06 139: 14.89 140: 26.18 141: 39.87 142: 26.85 143: 29.68 144:981.38
 145:333.21 146:311.07 147: 12.27 148: 35.54 149: 22.83 150: 46.44 151: 11.03 152: 42.37
 153: 12.09 154: 13.42 155:  3.34 156:  5.84 157: 71.90 158:  7.83 159: 41.36 160: 28.92
 161:  4.70 162:  3.07 163: 23.32 164: 26.27 165: 42.15 166:  1.78 167:  6.79 168:  2.11
 169: 27.19 170:  7.20 171:  0.18 172: 28.32 173:102.97 174:  0.85 175:  0.36 176:122.06
 177: 42.93 178:  7.92 179: 40.55 180:  5.45 181: 54.57 182:115.93 183:233.90 184: 13.03
 185:  9.36 186:  5.93 187: 36.74 188:  0.81 189:  0.26 190: 80.32 191:  2.58 192: 15.11
 193:  0.28 194: 52.84 195:  1.57 196:  2.90 197: 10.67 198:  2.25 199:  8.36 200:143.20
 201:  7.20 202:101.73 203:279.61 204:456.23 205: 65.07 206:357.35 207: 41.12 208: 63.65
 209: 11.54 210: 62.95 211:  8.42 212:  5.03 213: 18.85 214: 42.99 215: 27.76 216: 16.12
 217: 13.87 218:  8.04 219: 10.92 220:102.69 221: 21.22 222:  2.01 223:  4.97 224:  1.60
 225:  1.73 226:  0.12 227: 34.39 228:  5.35 229: 11.54 230:  2.60 231:  7.71 232: 21.12
 233: 38.51 234: 61.45 235:148.78 236:227.60 237: 88.11 238: 97.28 239: 17.45 240: 62.54
 241:214.99 242:  5.75 243:105.84 244:  8.02 245:  2.01 246: 30.56 247: 33.11 248: 11.68
 249:  4.23 250:  4.08 251:  0.34 252: 46.21 253:169.03 254: 40.73 255: 44.66 256: 15.97
 257:  2.56 258:  1.43 259:  2.57 260:  8.31 261:  1.18 262:  2.63 263:  0.83 264:  6.47
 265:  2.19 266:  8.12 267:105.07 268:  7.56 269: 46.74 270:  2.35 271:  0.97 272: 13.56
 273:  4.84 274:155.76 275:  1.06 276: 19.74 277: 24.64 278: 42.74 279: 89.57 280:  2.49
 281:  4.60 282:  0.19 283: 44.33 284:  9.87 285:  6.00 286:  6.38 287: 12.15 288: 10.15
 289:  9.66 290:  2.66 291:  3.34 292:  3.69 293:  1.62 294: 29.63 295:  4.76 296: 39.75
 297: 14.99 298: 62.04 299: 24.70 300: 14.71 301:  2.79 302:  1.15 303:  7.94 304: 17.16
 305: 36.60 306: 18.05 307: 17.84 308:  5.84 309: 72.58 310: 32.36 311: 55.84 312:  9.08
 313:  6.06 314: 25.49 315: 17.89 316: 18.94 317:217.58 318: 45.98 319: 26.75 320:  2.06
 321: 81.55 322: 23.80 323: 10.67 324: 22.95 325:  1.09 326:  1.53 327:  0.70 328: 21.69
 329: 25.00 330: 28.91 331: 59.53 332: 27.47 333: 17.65 334: 51.82 335: 32.50 336:  2.99
 337: 27.06 338: 26.40 339: 21.45 340: 47.04 341: 47.67 342: 34.65 343:262.98 344:246.47
 345: 37.18 346: 20.90 347: 33.21 348: 17.52 349: 14.06 350: 16.62 351:103.66 352: 34.12
 353: 42.96 354: 68.80 355:101.39 356:168.53 357: 42.12 358:  9.74 359: 27.83 360: 43.85
 361:****** 362: 98.87 363:****** 364: 49.81 365:****** 366: 30.41
 Raman intensities (amu)
   1:  0.00   2:  0.00   3:  0.00   4:  0.00   5:  0.00   6:  0.00   7:  0.00   8:  0.00
   9:  0.00  10:  0.00  11:  0.00  12:  0.00  13:  0.00  14:  0.00  15:  0.00  16:  0.00
  17:  0.00  18:  0.00  19:  0.00  20:  0.00  21:  0.00  22:  0.00  23:  0.00  24:  0.00
  25:  0.00  26:  0.00  27:  0.00  28:  0.00  29:  0.00  30:  0.00  31:  0.00  32:  0.00
  33:  0.00  34:  0.00  35:  0.00  36:  0.00  37:  0.00  38:  0.00  39:  0.00  40:  0.00
  41:  0.00  42:  0.00  43:  0.00  44:  0.00  45:  0.00  46:  0.00  47:  0.00  48:  0.00
  49:  0.00  50:  0.00  51:  0.00  52:  0.00  53:  0.00  54:  0.00  55:  0.00  56:  0.00
  57:  0.00  58:  0.00  59:  0.00  60:  0.00  61:  0.00  62:  0.00  63:  0.00  64:  0.00
  65:  0.00  66:  0.00  67:  0.00  68:  0.00  69:  0.00  70:  0.00  71:  0.00  72:  0.00
  73:  0.00  74:  0.00  75:  0.00  76:  0.00  77:  0.00  78:  0.00  79:  0.00  80:  0.00
  81:  0.00  82:  0.00  83:  0.00  84:  0.00  85:  0.00  86:  0.00  87:  0.00  88:  0.00
  89:  0.00  90:  0.00  91:  0.00  92:  0.00  93:  0.00  94:  0.00  95:  0.00  96:  0.00
  97:  0.00  98:  0.00  99:  0.00 100:  0.00 101:  0.00 102:  0.00 103:  0.00 104:  0.00
 105:  0.00 106:  0.00 107:  0.00 108:  0.00 109:  0.00 110:  0.00 111:  0.00 112:  0.00
 113:  0.00 114:  0.00 115:  0.00 116:  0.00 117:  0.00 118:  0.00 119:  0.00 120:  0.00
 121:  0.00 122:  0.00 123:  0.00 124:  0.00 125:  0.00 126:  0.00 127:  0.00 128:  0.00
 129:  0.00 130:  0.00 131:  0.00 132:  0.00 133:  0.00 134:  0.00 135:  0.00 136:  0.00
 137:  0.00 138:  0.00 139:  0.00 140:  0.00 141:  0.00 142:  0.00 143:  0.00 144:  0.00
 145:  0.00 146:  0.00 147:  0.00 148:  0.00 149:  0.00 150:  0.00 151:  0.00 152:  0.00
 153:  0.00 154:  0.00 155:  0.00 156:  0.00 157:  0.00 158:  0.00 159:  0.00 160:  0.00
 161:  0.00 162:  0.00 163:  0.00 164:  0.00 165:  0.00 166:  0.00 167:  0.00 168:  0.00
 169:  0.00 170:  0.00 171:  0.00 172:  0.00 173:  0.00 174:  0.00 175:  0.00 176:  0.00
 177:  0.00 178:  0.00 179:  0.00 180:  0.00 181:  0.00 182:  0.00 183:  0.00 184:  0.00
 185:  0.00 186:  0.00 187:  0.00 188:  0.00 189:  0.00 190:  0.00 191:  0.00 192:  0.00
 193:  0.00 194:  0.00 195:  0.00 196:  0.00 197:  0.00 198:  0.00 199:  0.00 200:  0.00
 201:  0.00 202:  0.00 203:  0.00 204:  0.00 205:  0.00 206:  0.00 207:  0.00 208:  0.00
 209:  0.00 210:  0.00 211:  0.00 212:  0.00 213:  0.00 214:  0.00 215:  0.00 216:  0.00
 217:  0.00 218:  0.00 219:  0.00 220:  0.00 221:  0.00 222:  0.00 223:  0.00 224:  0.00
 225:  0.00 226:  0.00 227:  0.00 228:  0.00 229:  0.00 230:  0.00 231:  0.00 232:  0.00
 233:  0.00 234:  0.00 235:  0.00 236:  0.00 237:  0.00 238:  0.00 239:  0.00 240:  0.00
 241:  0.00 242:  0.00 243:  0.00 244:  0.00 245:  0.00 246:  0.00 247:  0.00 248:  0.00
 249:  0.00 250:  0.00 251:  0.00 252:  0.00 253:  0.00 254:  0.00 255:  0.00 256:  0.00
 257:  0.00 258:  0.00 259:  0.00 260:  0.00 261:  0.00 262:  0.00 263:  0.00 264:  0.00
Refinement of some symmetry elements was terminated before convergence was reached.
Some symmetry elements may remain unidentified.
Molecule has no symmetry elements
It seems to be the C1 point group
 265:  0.00 266:  0.00 267:  0.00 268:  0.00 269:  0.00 270:  0.00 271:  0.00 272:  0.00
 273:  0.00 274:  0.00 275:  0.00 276:  0.00 277:  0.00 278:  0.00 279:  0.00 280:  0.00
 281:  0.00 282:  0.00 283:  0.00 284:  0.00 285:  0.00 286:  0.00 287:  0.00 288:  0.00
 289:  0.00 290:  0.00 291:  0.00 292:  0.00 293:  0.00 294:  0.00 295:  0.00 296:  0.00
 297:  0.00 298:  0.00 299:  0.00 300:  0.00 301:  0.00 302:  0.00 303:  0.00 304:  0.00
 305:  0.00 306:  0.00 307:  0.00 308:  0.00 309:  0.00 310:  0.00 311:  0.00 312:  0.00
 313:  0.00 314:  0.00 315:  0.00 316:  0.00 317:  0.00 318:  0.00 319:  0.00 320:  0.00
 321:  0.00 322:  0.00 323:  0.00 324:  0.00 325:  0.00 326:  0.00 327:  0.00 328:  0.00
 329:  0.00 330:  0.00 331:  0.00 332:  0.00 333:  0.00 334:  0.00 335:  0.00 336:  0.00
 337:  0.00 338:  0.00 339:  0.00 340:  0.00 341:  0.00 342:  0.00 343:  0.00 344:  0.00
 345:  0.00 346:  0.00 347:  0.00 348:  0.00 349:  0.00 350:  0.00 351:  0.00 352:  0.00
 353:  0.00 354:  0.00 355:  0.00 356:  0.00 357:  0.00 358:  0.00 359:  0.00 360:  0.00
 361:  0.00 362:  0.00 363:  0.00 364:  0.00 365:  0.00 366:  0.00
 output can be read by thermo (or use thermo option).
 writing <g98.out> molden fake output.
 recommended (thermochemical) frequency scaling factor: 1.0
           -------------------------------------------------
          |             Thermodynamic Functions             |
           -------------------------------------------------

c1  symmetry found (for desy threshold:  0.10E+00) used in thermo
 inverting freq            1   3.1136083364645737     

          ...................................................
          :                      SETUP                      :
          :.................................................:
          :  # frequencies                         359      :
          :  # imaginary freq.                       0      :
          :  linear?                             false      :
          :  only rotor calc.                    false      :
          :  symmetry                               c1      :
          :  rotational number                       1      :
          :  scaling factor                  1.0000000      :
          :  rotor cutoff                   50.0000000 cm⁻¹ :
          :  imag. cutoff                  -20.0000000 cm⁻¹ :
          :.................................................:

    mode    ω/cm⁻¹     T·S(HO)/kcal·mol⁻¹    T·S(FR)/kcal·mol⁻¹   T·S(vib)
   ------------------------------------------------------------------------
       1      3.11    -3.07975 (  0.00%)    -1.87898 (100.00%)    -1.87899
       2      2.78    -3.14651 (  0.00%)    -1.91235 (100.00%)    -1.91237
       3      3.59    -2.99599 (  0.00%)    -1.83710 (100.00%)    -1.83713
       4      6.97    -2.60213 (  0.04%)    -1.64016 ( 99.96%)    -1.64053
       5      7.29    -2.57612 (  0.05%)    -1.62716 ( 99.95%)    -1.62758
       6     13.13    -2.22706 (  0.47%)    -1.45260 ( 99.53%)    -1.45626
       7     16.61    -2.08798 (  1.20%)    -1.38303 ( 98.80%)    -1.39151
       8     22.49    -1.90842 (  3.94%)    -1.29318 ( 96.06%)    -1.31739
       9     24.18    -1.86571 (  5.18%)    -1.27180 ( 94.82%)    -1.30259
      10     29.54    -1.74726 ( 10.85%)    -1.21250 ( 89.15%)    -1.27054
      11     41.28    -1.54943 ( 31.72%)    -1.11334 ( 68.28%)    -1.25165
      12     41.51    -1.54609 ( 32.21%)    -1.11167 ( 67.79%)    -1.25159
      13     42.29    -1.53518 ( 33.84%)    -1.10619 ( 66.16%)    -1.25137
      14     42.55    -1.53146 ( 34.41%)    -1.10433 ( 65.59%)    -1.25130
      15     47.90    -1.46159 ( 45.72%)    -1.06925 ( 54.28%)    -1.24864
      16     52.94    -1.40267 ( 55.68%)    -1.03965 ( 44.32%)    -1.24178
      17     56.65    -1.36271 ( 62.24%)    -1.01955 ( 37.76%)    -1.23312
      18     66.32    -1.27002 ( 75.58%)    -0.97287 ( 24.42%)    -1.19747
      19     72.47    -1.21794 ( 81.53%)    -0.94658 ( 18.47%)    -1.16782
      20     83.28    -1.13656 ( 88.50%)    -0.90541 ( 11.50%)    -1.10998
      21     85.72    -1.11969 ( 89.62%)    -0.89686 ( 10.38%)    -1.09657
      22     89.55    -1.09415 ( 91.14%)    -0.88390 (  8.86%)    -1.07553
      23     95.17    -1.05872 ( 92.92%)    -0.86589 (  7.08%)    -1.04507
      24     96.56    -1.05028 ( 93.29%)    -0.86159 (  6.71%)    -1.03762
      25    102.56    -1.01519 ( 94.65%)    -0.84371 (  5.35%)    -1.00603
      26    111.20    -0.96837 ( 96.07%)    -0.81977 (  3.93%)    -0.96254
      27    114.82    -0.94985 ( 96.53%)    -0.81028 (  3.47%)    -0.94500
      28    115.72    -0.94531 ( 96.63%)    -0.80795 (  3.37%)    -0.94068
      29    116.39    -0.94198 ( 96.71%)    -0.80624 (  3.29%)    -0.93751
      30    118.00    -0.93408 ( 96.88%)    -0.80219 (  3.12%)    -0.92997
      31    119.11    -0.92865 ( 96.99%)    -0.79940 (  3.01%)    -0.92476
      32    141.89    -0.82832 ( 98.48%)    -0.74756 (  1.52%)    -0.82709
      33    141.98    -0.82795 ( 98.49%)    -0.74736 (  1.51%)    -0.82673
      34    142.71    -0.82504 ( 98.52%)    -0.74585 (  1.48%)    -0.82386
      35    150.14    -0.79621 ( 98.78%)    -0.73082 (  1.22%)    -0.79541
      36    153.18    -0.78482 ( 98.88%)    -0.72487 (  1.12%)    -0.78415
      37    160.84    -0.75727 ( 99.07%)    -0.71043 (  0.93%)    -0.75684
      38    169.58    -0.72752 ( 99.25%)    -0.69475 (  0.75%)    -0.72727
      39    178.45    -0.69904 ( 99.39%)    -0.67965 (  0.61%)    -0.69892
      40    180.83    -0.69164 ( 99.42%)    -0.67571 (  0.58%)    -0.69155
      41    183.42    -0.68374 ( 99.45%)    -0.67150 (  0.55%)    -0.68367
      42    183.67    -0.68299 ( 99.45%)    -0.67110 (  0.55%)    -0.68293
      43    185.04    -0.67888 ( 99.47%)    -0.66891 (  0.53%)    -0.67883
      44    200.12    -0.63565 ( 99.61%)    -0.64569 (  0.39%)    -0.63569
      45    201.45    -0.63203 ( 99.62%)    -0.64374 (  0.38%)    -0.63208
      46    202.12    -0.63021 ( 99.63%)    -0.64275 (  0.37%)    -0.63026
      47    203.38    -0.62679 ( 99.64%)    -0.64090 (  0.36%)    -0.62684
      48    205.25    -0.62180 ( 99.65%)    -0.63820 (  0.35%)    -0.62186
      49    218.16    -0.58863 ( 99.72%)    -0.62012 (  0.28%)    -0.58871
      50    251.76    -0.51228 ( 99.84%)    -0.57768 (  0.16%)    -0.51238
      51    264.47    -0.48660 ( 99.87%)    -0.56310 (  0.13%)    -0.48670
      52    264.65    -0.48626 ( 99.87%)    -0.56290 (  0.13%)    -0.48636
      53    265.13    -0.48530 ( 99.87%)    -0.56236 (  0.13%)    -0.48540
      54    265.43    -0.48472 ( 99.87%)    -0.56202 (  0.13%)    -0.48482
      55    266.85    -0.48197 ( 99.88%)    -0.56045 (  0.12%)    -0.48207
      56    269.92    -0.47607 ( 99.88%)    -0.55706 (  0.12%)    -0.47616
      57    274.93    -0.46660 ( 99.89%)    -0.55161 (  0.11%)    -0.46670
      58    281.94    -0.45375 ( 99.90%)    -0.54415 (  0.10%)    -0.45383
      59    283.18    -0.45151 ( 99.90%)    -0.54285 (  0.10%)    -0.45160
      60    288.17    -0.44266 ( 99.91%)    -0.53767 (  0.09%)    -0.44274
      61    297.66    -0.42636 ( 99.92%)    -0.52807 (  0.08%)    -0.42644
      62    298.62    -0.42475 ( 99.92%)    -0.52712 (  0.08%)    -0.42483
   ------------------------------------------------------------------------

   temp. (K)  partition function   enthalpy   heat capacity  entropy
                                   cal/mol     cal/K/mol   cal/K/mol   J/K/mol
 298.15  VIB  0.738E+35            41254.788    266.941    262.639
         ROT  0.116E+10              888.752      2.981     44.454
         INT  0.854E+44            42143.541    269.922    307.094
         TR   0.339E+29             1481.254      4.968     46.765
         TOT                       43624.7945   274.8905   353.8587  1480.5450

       T/K    H(0)-H(T)+PV         H(T)/Eh          T*S/Eh         G(T)/Eh
   ------------------------------------------------------------------------
    298.15    0.695205E-01    0.941119E+00    0.168130E+00    0.772989E+00
   ------------------------------------------------------------------------

         :::::::::::::::::::::::::::::::::::::::::::::::::::::
         ::                  THERMODYNAMIC                  ::
         :::::::::::::::::::::::::::::::::::::::::::::::::::::
         :: total free energy        -207.503651529759 Eh   ::
         ::.................................................::
         :: total energy             -208.276640532281 Eh   ::
         :: zero point energy           0.871598177263 Eh   ::
         :: G(RRHO) w/o ZPVE           -0.098609174742 Eh   ::
         :: G(RRHO) contrib.            0.772989002522 Eh   ::
         :::::::::::::::::::::::::::::::::::::::::::::::::::::

optimized geometry written to: xtbopt.xyz


           -------------------------------------------------
          | TOTAL ENERGY             -208.276640532281 Eh   |
          | TOTAL ENTHALPY           -207.335521819872 Eh   |
          | TOTAL FREE ENERGY        -207.503651529759 Eh   |
          | GRADIENT NORM               0.000581527090 Eh/α |
          | HOMO-LUMO GAP               1.033196808759 eV   |
           -------------------------------------------------

------------------------------------------------------------------------
 * finished run on 2021/11/18 at 17:33:20.681     
------------------------------------------------------------------------
 total:
 * wall-time:     0 d,  0 h,  5 min,  1.472 sec
 *  cpu-time:     0 d,  0 h,  5 min,  1.458 sec
 * ratio c/w:     1.000 speedup
 SCF:
 * wall-time:     0 d,  0 h,  0 min,  0.645 sec
 *  cpu-time:     0 d,  0 h,  0 min,  0.645 sec
 * ratio c/w:     1.000 speedup
 ANC optimizer:
 * wall-time:     0 d,  0 h,  0 min, 49.500 sec
 *  cpu-time:     0 d,  0 h,  0 min, 49.484 sec
 * ratio c/w:     1.000 speedup
 analytical hessian:
 * wall-time:     0 d,  0 h,  4 min, 11.174 sec
 *  cpu-time:     0 d,  0 h,  4 min, 11.177 sec
 * ratio c/w:     1.000 speedup

