122
 energy: -207.858613900202 gnorm: 0.479760271049 xtb: 6.4.1 (bd6e46d)
C       -12.62637600000000    1.52101800000000    3.86577300000000
C       -11.97812000000000    0.61686400000000    3.15328300000000
C       -12.62678000000000    0.43444800000000    1.87050100000000
C       -12.46461000000000   -0.32300600000000    0.71794400000000
C       -13.45144300000000   -0.72412800000000   -0.22396200000000
C       -13.26114700000000   -1.70153900000000   -1.21436700000000
C       -14.41153900000000   -1.81682800000000   -1.90436000000000
C       -15.34495900000000   -0.92669700000000   -1.37223400000000
N       -14.72237800000000   -0.29417500000000   -0.36783500000000
C       -16.64936600000000   -0.80445800000000   -1.85558800000000
C       -17.62169100000000    0.16986000000000   -1.82363500000000
C       -18.73671700000000    0.51487400000000   -2.61484800000000
C       -19.29925900000000    1.57901800000000   -2.07222800000000
C       -18.54248900000000    1.94161100000000   -0.90665900000000
N       -17.59971000000000    1.10231600000000   -0.81636800000000
C       -18.55821900000000    2.91643000000000    0.08652400000000
C       -17.53042100000000    3.25001200000000    0.98291800000000
C       -17.17434600000000    4.60303700000000    1.21636300000000
C       -16.14844200000000    4.58376800000000    2.09000300000000
C       -15.83195100000000    3.24272500000000    2.42881700000000
N       -16.70703300000000    2.50064400000000    1.72757700000000
C       -14.78315400000000    2.92768300000000    3.28286600000000
C       -13.75805600000000    1.99296900000000    3.08158500000000
N       -13.64778100000000    1.29844700000000    1.96863800000000
H       -12.36318200000000    1.86593500000000    4.88494500000000
H       -11.07515500000000    0.06747700000000    3.45745200000000
H       -12.32025300000000   -2.27488600000000   -1.38791000000000
H       -14.58627700000000   -2.49004800000000   -2.73818800000000
H       -15.21668300000000    0.51347900000000    0.27317000000000
H       -17.08022100000000   -1.60789700000000   -2.37817500000000
H       -19.00789300000000   -0.03947100000000   -3.48234600000000
H       -20.14139600000000    2.05595800000000   -2.44359200000000
H       -19.52323700000000    3.45189900000000    0.07059900000000
H       -17.67055100000000    5.47852600000000    0.75849100000000
H       -15.66260400000000    5.50928900000000    2.46080400000000
H       -16.76226600000000    1.36252000000000    1.79298300000000
H       -14.68434600000000    3.47082100000000    4.23063200000000
C        13.76381600000000   -2.79736500000000    1.63108400000000
C        12.61083500000000   -2.15627300000000    1.39882300000000
C        12.99262900000000   -0.79982900000000    1.02130400000000
C        12.30616800000000    0.36595700000000    0.65099100000000
C        12.86451600000000    1.64634400000000    0.49577600000000
C        12.23968500000000    2.75699300000000    1.12122600000000
C        12.99936400000000    3.85056600000000    0.82574900000000
C        14.06847500000000    3.38214300000000    0.02830100000000
N        13.96038100000000    2.05943200000000   -0.15441100000000
C        15.03663100000000    4.30634300000000   -0.40640300000000
C        16.40994300000000    4.13953000000000   -0.42050100000000
C        17.53379900000000    4.97602700000000   -0.76217100000000
C        18.65818500000000    4.29837100000000   -0.59455500000000
C        18.29414400000000    2.96943900000000   -0.12809300000000
N        16.94717600000000    2.95224600000000   -0.04988600000000
C        18.99271600000000    1.80576600000000    0.22411800000000
C        18.43228800000000    0.64294700000000    0.77872700000000
C        19.07905700000000    0.03442300000000    1.88507800000000
C        18.31879800000000   -1.04058200000000    2.24387500000000
C        17.22820300000000   -1.05871400000000    1.34657600000000
N        17.32045000000000   -0.04200700000000    0.47674900000000
C        16.24387500000000   -2.05477100000000    1.50031900000000
C        14.87746800000000   -1.90848700000000    1.41614500000000
N        14.34056600000000   -0.72360600000000    1.05215000000000
H        13.77653900000000   -3.84368600000000    1.93552900000000
H        11.60237700000000   -2.54376800000000    1.47030800000000
H        11.31351700000000    2.76828100000000    1.72859300000000
H        12.78870700000000    4.88512500000000    1.15906600000000
H        14.64904200000000    1.41734600000000   -0.76541200000000
H        14.72092500000000    5.30300300000000   -0.77214900000000
H        17.50210100000000    6.00903100000000   -1.10926300000000
H        19.68421200000000    4.66960900000000   -0.77152400000000
H        20.07393700000000    1.91004500000000    0.03161100000000
H        20.02365200000000    0.34428100000000    2.37609200000000
H        18.54067600000000   -1.74488100000000    3.06913800000000
H        16.61971300000000    0.17717200000000   -0.36801400000000
H        16.54431300000000   -3.09544400000000    1.73168600000000
C       -11.12255800000000   -0.74225100000000    0.46000900000000
C        -9.95507200000000   -1.07568100000000    0.25436500000000
C        -8.60591800000000   -1.42076600000000    0.03118800000000
C        -7.44660000000000   -1.67967800000000   -0.15156700000000
C        -6.07688100000000   -1.94231300000000   -0.35167600000000
C        -4.87370700000000   -2.13436600000000   -0.51380200000000
C         4.64259200000000   -1.06155900000000   -0.81371500000000
C         5.81696900000000   -0.80507800000000   -0.55842700000000
C         7.17034000000000   -0.53581300000000   -0.25311700000000
C         8.33173300000000   -0.32264500000000   -0.00894300000000
C         9.69618900000000   -0.08431800000000    0.25174100000000
C        10.87562000000000    0.11534100000000    0.44879700000000
C        -2.38097900000000   -4.22537700000000    2.21870700000000
C        -3.39826700000000   -3.80953100000000    1.48623800000000
C        -2.89274700000000   -3.00476500000000    0.39139400000000
C        -3.46169100000000   -2.30498200000000   -0.71331200000000
C        -2.76754900000000   -1.84081800000000   -1.84892400000000
C        -3.27651100000000   -2.15711400000000   -3.11664000000000
C        -2.41811600000000   -1.61821900000000   -4.00348800000000
C        -1.37754300000000   -0.96821500000000   -3.28811900000000
N        -1.62693300000000   -1.12300300000000   -1.98014200000000
C        -0.34796500000000   -0.35510200000000   -4.00776800000000
C         1.01280400000000   -0.32313800000000   -3.65329300000000
C         2.22095200000000    0.23197000000000   -4.22875300000000
C         3.21803500000000   -0.06063100000000   -3.40706600000000
C         2.73259900000000   -0.81112400000000   -2.26674900000000
N         1.42339900000000   -0.90437500000000   -2.52071800000000
C         3.27567300000000   -1.38596500000000   -1.12126300000000
C         2.65000000000000   -2.29764300000000   -0.22271500000000
C         3.24788500000000   -3.50699500000000    0.16806700000000
C         2.40646800000000   -4.16937300000000    0.99278500000000
C         1.26386200000000   -3.33813800000000    1.10763500000000
N         1.44799700000000   -2.22977800000000    0.36952700000000
C         0.19146300000000   -3.77032600000000    1.89783600000000
C        -1.19035500000000   -3.68853700000000    1.59936400000000
N        -1.57391200000000   -3.00282900000000    0.56015000000000
H        -2.36918700000000   -4.84005900000000    3.10683100000000
H        -4.46455300000000   -4.01025900000000    1.63562200000000
H        -4.19818900000000   -2.72266700000000   -3.37043400000000
H        -2.55954400000000   -1.70263400000000   -5.09222400000000
H        -1.01089500000000   -0.70609700000000   -1.15093300000000
H        -0.53088500000000    0.15438400000000   -4.94521700000000
H         2.28955500000000    0.78173400000000   -5.15593900000000
H         4.27984800000000    0.20720100000000   -3.53374100000000
H         4.26519200000000   -3.86426700000000   -0.14714000000000
H         2.57683100000000   -5.13427800000000    1.46680900000000
H         0.70064100000000   -1.38035900000000    0.29658500000000
H         0.40108100000000   -4.25906300000000    2.89073500000000
122
 energy: -208.011249881068 gnorm: 0.241545515753 xtb: 6.4.1 (bd6e46d)
C       -12.62479243049494    1.52636709076702    3.87785869662284
C       -11.95895555723723    0.61609896792765    3.15134576981723
C       -12.64525628695250    0.45789438297196    1.87155091251878
C       -12.44552053846507   -0.32601912421094    0.71958377862363
C       -13.44010994355927   -0.71199968096909   -0.21940869851555
C       -13.24686870820689   -1.70115778259566   -1.21645320285825
C       -14.41226639390853   -1.83187345754007   -1.90479829948376
C       -15.35318851982147   -0.92958477579493   -1.36359602872427
N       -14.72580078958682   -0.27515371773292   -0.35177368320877
C       -16.65242283310102   -0.81560788729834   -1.85829787871279
C       -17.60450722399061    0.17778174336141   -1.79371034421699
C       -18.73903431919195    0.50324162280896   -2.60981076688695
C       -19.31295475052559    1.58544787401365   -2.06783067469442
C       -18.53552318053100    1.92892363962888   -0.88867391821213
N       -17.53676834143534    1.08720179331301   -0.79322111756403
C       -18.58139336782960    2.91785903150649    0.08587413159777
C       -17.54727183792856    3.25230762126340    0.98176612778953
C       -17.19204186025535    4.60532997596142    1.22713854874794
C       -16.15396477945574    4.59571948881431    2.10817819633020
C       -15.82907890742262    3.24842459998051    2.42754588825385
N       -16.69706474445426    2.48366160779909    1.71030982420640
C       -14.77088691748516    2.91132646890005    3.29194786693127
C       -13.76745320239118    1.96992295981624    3.07201045922212
N       -13.70187231283210    1.28558724653680    1.92480245466228
H       -12.36770182541809    1.86469694299262    4.87932715901277
H       -11.07450183339643    0.06737089060718    3.45535243507363
H       -12.32860094496747   -2.26368959425669   -1.38400043119703
H       -14.58848674528919   -2.49219471806421   -2.73697947576174
H       -15.18811387434959    0.48703981421628    0.24944084649434
H       -17.05896958059905   -1.63146904305998   -2.41656475449665
H       -19.01141646773198   -0.04218227911630   -3.48948805750956
H       -20.16634160403533    2.07719668245122   -2.44942238142940
H       -19.51182658389584    3.48383412061113    0.06840858436639
H       -17.66456673447064    5.46574311832306    0.76223594961139
H       -15.65772307123317    5.49545994372693    2.46320657465782
H       -16.75500346643803    1.41250004809586    1.77794470447354
H       -14.67384861874655    3.48032284908553    4.21760933930131
C        13.76006668569032   -2.81006516320228    1.63125209884440
C        12.61054167846881   -2.15175905389394    1.39297368460761
C        13.00642118004718   -0.80087153831071    1.00667125425093
C        12.27936585196889    0.34068854961324    0.64275294106055
C        12.84076883483581    1.63768028755836    0.49753377175746
C        12.22560668705647    2.75738537731753    1.11038018665190
C        12.98970930304606    3.85488572158556    0.81311534178258
C        14.07351913630374    3.40086147161646    0.02433063392491
N        13.96440855345757    2.05744563906776   -0.13971501542409
C        15.05177842475574    4.31397855166421   -0.42100083653820
C        16.41964792265845    4.11891672360777   -0.42977443088857
C        17.53405427523526    4.98710693162801   -0.76854361224533
C        18.66794825250788    4.29326884583737   -0.59711558511626
C        18.27403022660243    2.96168816012402   -0.14141945665508
N        16.93077306251155    2.92609155141860   -0.05017575806383
C        18.99489208188791    1.82366781645905    0.20730939642966
C        18.45031956384413    0.65447348891566    0.77592407314391
C        19.09324676241613    0.02674581004534    1.87486065831217
C        18.32839818433927   -1.05065574191797    2.23464063387156
C        17.22160393989157   -1.07759692721018    1.35254836012620
N        17.31511859349393   -0.03344202482751    0.48934418755754
C        16.23056495463607   -2.07039562513894    1.49266827620344
C        14.86533083928944   -1.90008100119430    1.39710056577469
N        14.34790486868650   -0.70379957169742    1.04017285668546
H        13.78820119684815   -3.84542388565279    1.93772665179170
H        11.60575537702605   -2.53484061974776    1.46870961122229
H        11.32555515570130    2.75864374934130    1.72020959240750
H        12.79907548410904    4.87105792389479    1.15087166290761
H        14.61939821590013    1.44806263574401   -0.72171826322409
H        14.72068471202902    5.30292463089836   -0.75179649658754
H        17.49285476468347    6.01157453984937   -1.10827700609126
H        19.67819759723255    4.65840235517142   -0.76686766062469
H        20.07245722449886    1.91056727705590    0.05556200675352
H        20.01021433644897    0.34704881246190    2.36470776986064
H        18.53053228974666   -1.73588331430200    3.05521533652881
H        16.64831609273317    0.17429647969107   -0.31474457804672
H        16.54732874382436   -3.08491127047459    1.75036515128494
C       -11.10837318534545   -0.75707528483321    0.46943698288208
C        -9.94562533849118   -1.07915725412596    0.25358202326417
C        -8.61883867787474   -1.41284025809858    0.03366959565134
C        -7.43232472546910   -1.67939142069316   -0.14849517445521
C        -6.08857520906615   -1.94182047783686   -0.35403520219337
C        -4.89172595979929   -2.14013657141911   -0.53424594599935
C         4.65990834317061   -1.06469300763821   -0.82286954816364
C         5.82957127227032   -0.80793212187045   -0.55804022335370
C         7.15689165570867   -0.54024928750145   -0.25856717523693
C         8.34031540863539   -0.32333127986669   -0.00871707783763
C         9.67984732161962   -0.08530203504949    0.25227439865024
C        10.86723376330178    0.13058555231842    0.45753705153396
C        -2.37570547634737   -4.22422787094361    2.22570499035073
C        -3.41328597408781   -3.80329622324565    1.48685142502034
C        -2.87918856899995   -2.99121927501973    0.39940999459789
C        -3.48372426265001   -2.30361958897194   -0.67889215215832
C        -2.78735951359500   -1.84282160139712   -1.83325313534320
C        -3.29144274838645   -2.14573326126584   -3.11458094776389
C        -2.42502446640434   -1.60509451158749   -4.01656831423267
C        -1.37556152228447   -0.96695426225618   -3.30327937897838
N        -1.62519439071595   -1.13915414718355   -1.97712927663590
C        -0.32629668467871   -0.34458525121230   -4.00154219753147
C         1.01690454806453   -0.32409486658067   -3.62238594486867
C         2.22158573445103    0.23402355898767   -4.23078487685734
C         3.23746927055611   -0.05264241213592   -3.40218019480938
C         2.71241229688052   -0.80096751695860   -2.26520503584278
N         1.39143161937959   -0.92456019604823   -2.47946625917875
C         3.29713347034307   -1.36884026150214   -1.12430962671760
C         2.66083923709081   -2.29058466460838   -0.22911679707145
C         3.26797063623100   -3.49906059446940    0.17051515424505
C         2.41230462089695   -4.15900936484574    1.00567694716046
C         1.25634296833205   -3.34510982887766    1.12287046616911
N         1.43599206352691   -2.23502595969489    0.35755607142407
C         0.17357462177771   -3.76866560973874    1.91511582255898
C        -1.18225937959066   -3.66913924143546    1.59767624878988
N        -1.54933048168614   -2.97554023639931    0.52701838963905
H        -2.37072356085237   -4.84168309279631    3.10661002739504
H        -4.46483328511668   -4.01055766235904    1.63474019181975
H        -4.18638584728876   -2.71607238463337   -3.35690736594395
H        -2.54543385291898   -1.69580579203070   -5.08880556270509
H        -1.03542228768700   -0.73895235031760   -1.18978301357768
H        -0.53110801544869    0.13891134675683   -4.94976267396783
H         2.28531713295525    0.77974568821642   -5.15711501762024
H         4.28177257274340    0.20751342980120   -3.53415565819549
H         4.25194083485721   -3.85374540688220   -0.14893926136950
H         2.56997371187911   -5.12383232664989    1.46395003086832
H         0.73299119280916   -1.42924217838236    0.29022779335675
H         0.40152616052582   -4.27307569455552    2.86826789415319
122
 energy: -208.082586714586 gnorm: 0.079064640651 xtb: 6.4.1 (bd6e46d)
C       -12.63268558143715    1.52778854233401    3.87492827202932
C       -11.95112132185863    0.61921883698047    3.13740522383359
C       -12.67093323938052    0.47680178557791    1.86958717332024
C       -12.42410254181549   -0.33285132804869    0.71932438313195
C       -13.42685917401392   -0.69982274875178   -0.21722932843449
C       -13.23548142018107   -1.69777181230579   -1.21832566345052
C       -14.41042659267707   -1.84718440938513   -1.89777864771214
C       -15.35910368590869   -0.93716466237357   -1.35338814664953
N       -14.72579185701019   -0.25947190907418   -0.33884726877828
C       -16.65121255309509   -0.83126548535908   -1.86546093097269
C       -17.58520878830415    0.18935392799164   -1.75622108373498
C       -18.73547881993912    0.49264545218657   -2.59371974092414
C       -19.31806793452303    1.58273443978256   -2.04963816951629
C       -18.52388227322134    1.91617204765629   -0.86681789076181
N       -17.48391383925210    1.07704183132905   -0.76965129108874
C       -18.60068920187102    2.91795941197770    0.08139245785585
C       -17.56207149754127    3.25732389541164    0.98386845600059
C       -17.21111210507673    4.60315895112035    1.24375862154650
C       -16.16043385613937    4.60254004721370    2.12637064053128
C       -15.82749051638542    3.25670583211635    2.42437049670669
N       -16.68431722239858    2.47104801657699    1.69075815611179
C       -14.76110677216337    2.89279639092266    3.29631190851972
C       -13.78197162228189    1.94334531499403    3.06019010184986
N       -13.75276306271063    1.26324512824054    1.88854179968646
H       -12.38201507594539    1.86549591961592    4.86350739974751
H       -11.07765134226487    0.07232276121129    3.43915230368682
H       -12.33252049018472   -2.25025187952432   -1.38115033735384
H       -14.59088512327376   -2.49672107124969   -2.73064500724745
H       -15.15206238063426    0.45624281518351    0.21957291397628
H       -17.02100157259597   -1.65095577370056   -2.46671959124392
H       -19.00946340298049   -0.04134320087497   -3.48573449729792
H       -20.17529336409003    2.09251604519475   -2.43798768083489
H       -19.49445540463998    3.52460492482004    0.06054469683725
H       -17.66325163667790    5.45402324956437    0.77176508720948
H       -15.65221334879580    5.48000613974867    2.47200444587508
H       -16.74189959835392    1.47245114102270    1.75468624159019
H       -14.66283567498759    3.49207239944402    4.19778639380517
C        13.75805436994843   -2.81672126700403    1.62478293935470
C        12.61316055083951   -2.14248908601539    1.38073923736131
C        13.01963462275992   -0.79704862146253    0.98716834238016
C        12.24170814351961    0.31969104913950    0.63212014309732
C        12.81073527134337    1.63281777209899    0.49828313190752
C        12.20760981240854    2.75957481023475    1.09443943370286
C        12.97549938009743    3.85785636686762    0.79667217633760
C        14.07246089311544    3.41755406789156    0.02267956656316
N        13.96339041679496    2.05538877664289   -0.11822911811366
C        15.06243206186811    4.31883516523929   -0.43321296047577
C        16.42516791036828    4.09247759295637   -0.44268469068295
C        17.53159752207333    4.98818827356980   -0.77626054780295
C        18.66891291508704    4.28099833055710   -0.60228498997266
C        18.25039345713610    2.94810248786574   -0.15843712211085
N        16.91254415166393    2.89668908441788   -0.06576451163467
C        18.99678258094027    1.83718813755624    0.19310072707254
C        18.47019925887816    0.66166598832677    0.77533713583493
C        19.10937355744741    0.01403427976354    1.86134047253882
C        18.34193979765501   -1.06266595409819    2.22055332403376
C        17.21824542031323   -1.09445991942757    1.35976544592915
N        17.31067223921942   -0.02214911704382    0.50947940319650
C        16.21814691374683   -2.08181439469492    1.48604164498733
C        14.85514460299365   -1.88734139822966    1.37255258601253
N        14.35360129425428   -0.68678447423897    1.01422485664770
H        13.80881501239983   -3.84219890313857    1.93902245826578
H        11.60968525881264   -2.51921155834741    1.46519080634254
H        11.32983704837801    2.74928091197431    1.70988487996029
H        12.80716744117719    4.86085198238684    1.13950710830237
H        14.58557645149052    1.48117176149472   -0.66538838873492
H        14.71858433126452    5.30537272193188   -0.72292979878668
H        17.47643191071233    6.00893065537320   -1.10413432378879
H        19.67000796915094    4.63940609081551   -0.75945935345933
H        20.07337059127124    1.91125440573800    0.09116798607366
H        20.00304946109249    0.34815640660927    2.35111373159203
H        18.52295544135321   -1.73201026642657    3.04017468604272
H        16.67802813682500    0.17577009339251   -0.24908400963696
H        16.55007597997879   -3.07138302751450    1.77817373316147
C       -11.09412315098811   -0.77251347796539    0.47917538257523
C        -9.92462184961179   -1.08593897010077    0.25719720902916
C        -8.62077099845961   -1.40726978266906    0.03559674693192
C        -7.42891154576696   -1.67394339943189   -0.15189395998870
C        -6.11067744824104   -1.93850006029593   -0.35251713940428
C        -4.91194871628618   -2.14434710005178   -0.55267474125294
C         4.68170170813404   -1.07150142336675   -0.83627126348905
C         5.85401310088015   -0.81126639615161   -0.55651471466466
C         7.15392120437270   -0.54391883486268   -0.26087050874698
C         8.34482747376265   -0.32169275264353   -0.01055653849625
C         9.65848904048468   -0.08689871525806    0.25049768957007
C        10.85079184337068    0.14148043815722    0.46437230527821
C        -2.36715467461904   -4.21011808354351    2.22549029324483
C        -3.41839962017231   -3.78825886451734    1.48634500374394
C        -2.86330895611245   -2.97278015126268    0.40598786794937
C        -3.51126895394283   -2.30152576378876   -0.65070143167452
C        -2.81236248097488   -1.84290782451509   -1.82372761254840
C        -3.30822358368486   -2.12845181737954   -3.11341955475574
C        -2.43650363255073   -1.58991135017082   -4.02549988491719
C        -1.37939846259317   -0.96863221239365   -3.31805952406384
N        -1.62730824018485   -1.16148278167678   -1.97744728083149
C        -0.30645822243379   -0.33807560560378   -3.99017194200266
C         1.01963003685850   -0.32532010525993   -3.58363190702330
C         2.21647042551881    0.23257880848912   -4.21889427807453
C         3.24717669674369   -0.04809574087480   -3.38863520002356
C         2.69251826458474   -0.78860548682266   -2.25493078946289
N         1.36856308869361   -0.93339866076342   -2.43099269381811
C         3.32451351885550   -1.35116832706646   -1.12283036666743
C         2.67443683711911   -2.28428778941410   -0.23290499458329
C         3.28765187989556   -3.48732192837174    0.17796608567050
C         2.42136647947078   -4.14322046182403    1.01945735558380
C         1.25578792220603   -3.35190997639481    1.13508795445948
N         1.42825468983116   -2.24366520340064    0.34153005838932
C         0.15840738655477   -3.76705073245607    1.92621870346297
C        -1.17467210441096   -3.64355227433950    1.59176492732706
N        -1.53003604012342   -2.94083430662539    0.49947658838260
H        -2.36891365053350   -4.83686327331462    3.09827648957545
H        -4.45925136173177   -4.00698155604709    1.63052676280945
H        -4.18146015371423   -2.70650583798441   -3.34323726346223
H        -2.53216497611628   -1.68511044039871   -5.08751720528012
H        -1.06206564872804   -0.78293284238731   -1.23349811535571
H        -0.53276136988885    0.11411958080536   -4.95148015374134
H         2.27244851742621    0.77037976076404   -5.14914329676439
H         4.27987486149994    0.20312349442348   -3.52728815513910
H         4.24407475763094   -3.84117016629564   -0.14809362747873
H         2.56562791236997   -5.11049193171113    1.46390468384598
H         0.76992313330528   -1.48826879407947    0.27606392011529
H         0.40307577853156   -4.29477807192996    2.84107507641836
122
 energy: -208.115275993413 gnorm: 0.052487248726 xtb: 6.4.1 (bd6e46d)
C       -12.65445783794076    1.52097355940851    3.85175762531917
C       -11.96104694553916    0.62461583987419    3.10952399516515
C       -12.69426407855613    0.47778802593878    1.85276615884872
C       -12.41072173049967   -0.33807079040735    0.70958716682003
C       -13.40835063848293   -0.70186613443944   -0.22700604568433
C       -13.22058271106025   -1.70163485353013   -1.22520222299323
C       -14.39943617016021   -1.86789857745110   -1.89141033615345
C       -15.34950790254708   -0.95570741612144   -1.35097630713902
N       -14.70996493948164   -0.26891860610279   -0.34337375949440
C       -16.63515850392951   -0.84895188326703   -1.87244624532265
C       -17.56388945869962    0.18262821726571   -1.72283081114369
C       -18.72348386202860    0.48231066620425   -2.56117691361423
C       -19.30902647685546    1.57089181327926   -2.01416270166949
C       -18.50536052635679    1.90651760553805   -0.83789753867910
N       -17.45252993909999    1.06550647443731   -0.73835943842033
C       -18.60166680468601    2.92655578528331    0.08351474884796
C       -17.56902555937630    3.27558991520158    0.99003825435974
C       -17.22975616408253    4.61325338046676    1.27055197139906
C       -16.17113471113685    4.61075458400407    2.14861530768070
C       -15.82816356286580    3.26854253764715    2.41969969236784
N       -16.67462984352703    2.48613728190531    1.67255399697884
C       -14.76351484979285    2.88108842753101    3.28729590089167
C       -13.81073301788232    1.91506582798503    3.04246429538163
N       -13.79634320792904    1.22921488944502    1.86693751403647
H       -12.40718139131917    1.86943022250992    4.83792032048718
H       -11.07943490099804    0.08589826115730    3.40403213167158
H       -12.31365013721409   -2.24417097441398   -1.38662630058628
H       -14.58837715891187   -2.51789769057242   -2.72154582217115
H       -15.12683419871561    0.46199022043636    0.21133797525279
H       -16.96613631083456   -1.65181043656007   -2.53182055577545
H       -18.99841437610929   -0.04131688650073   -3.46108316179848
H       -20.16504748882199    2.09581200377460   -2.40133548259884
H       -19.46702528275997    3.57952653139502    0.03582550785105
H       -17.67532214068372    5.46191091383234    0.79345945325151
H       -15.64584229152198    5.47624172049159    2.49628224260163
H       -16.72166054823735    1.48410600820019    1.71612112798459
H       -14.64012167891290    3.50600935945360    4.16848823954910
C        13.76251521944404   -2.80760705761632    1.60277197983530
C        12.61906557169748   -2.13090329723568    1.35643209051979
C        13.02425180119143   -0.78915580570413    0.95293095063742
C        12.21584858076917    0.31736671120564    0.62080561442815
C        12.77883723686484    1.63869900095121    0.49931032918390
C        12.17391197359675    2.76944242333430    1.07434842326222
C        12.94738657990607    3.86623505773802    0.77908558157413
C        14.05575916663542    3.42747585104052    0.02757796302821
N        13.94553729559583    2.06172586080400   -0.09108750798195
C        15.05644186036448    4.31440868850397   -0.43556307437381
C        16.41460184635107    4.06136216343957   -0.46629315906608
C        17.51879254801067    4.96770771731627   -0.78860005860763
C        18.65393225242304    4.25654596760586   -0.61500041501542
C        18.23032443181063    2.92171144732325   -0.18460639182782
N        16.89285640060062    2.85844747840441   -0.10847990651587
C        18.99869088289275    1.83456736497865    0.19189172071298
C        18.48817538376462    0.65810493458235    0.78307649522233
C        19.13503243415659   -0.00773585580138    1.84874707756119
C        18.36471288915725   -1.08232739959392    2.20795304752074
C        17.22542397644602   -1.10226793399523    1.37067557283404
N        17.31633267087257   -0.01401661930390    0.54059605505135
C        16.21400425172666   -2.07904218177310    1.48386415359365
C        14.85455869033018   -1.87315112726038    1.33869617690449
N        14.35647697547550   -0.67546633783908    0.96564616984731
H        13.83550706092470   -3.82719385904776    1.93680782083869
H        11.61337371851557   -2.49639587524626    1.45773334147449
H        11.30485546303431    2.74822677983020    1.69818081234998
H        12.79832667056607    4.86825131054883    1.12598536289577
H        14.58181352073960    1.48508608443879   -0.61109478383831
H        14.71805732574737    5.31738120870087   -0.67543870234997
H        17.45080108584971    5.99604571997530   -1.09465869641382
H        19.66001225913633    4.61013445486847   -0.74884684714217
H        20.07983636907799    1.92490132648974    0.14724878078959
H        20.02071528365440    0.34034055134352    2.33882484897976
H        18.53033371753863   -1.74705557661925    3.03097006918853
H        16.67066957726918    0.20123861946763   -0.19653229849995
H        16.54415846315691   -3.05464277561631    1.82766490530298
C       -11.08606028266425   -0.78717920146423    0.49557578828285
C        -9.91652821039071   -1.09076225344078    0.26984116169040
C        -8.62198592168718   -1.40392122486877    0.04019384540857