122
 energy: -208.276640532367 gnorm: 0.000581478184 xtb: 6.4.1 (bd6e46d)
C       -12.53479360262040    2.22979471416216    2.79869622667068
C       -11.83478045336565    1.43722193896242    1.96403353823037
C       -12.79696357730925    0.91442189979826    1.01013403847903
C       -12.44619341009994    0.04244821273646   -0.03957633448297
C       -13.35367604271174   -0.47336681551702   -0.97823323015855
C       -13.06979206684218   -1.35225721577100   -2.05783576270350
C       -14.24481065348372   -1.59489168586963   -2.70879835748605
C       -15.27157856519629   -0.86926564642046   -2.04114664695177
N       -14.68403434850074   -0.20935076892716   -1.00489257522734
C       -16.61613276630044   -0.83879808125554   -2.38028176660718
C       -17.63070172818174   -0.13746927360875   -1.74338877399986
C       -19.01588469681786   -0.18112734868000   -2.18981554866021
C       -19.70737827816806    0.60833607372941   -1.34737188489399
C       -18.73966719193973    1.12746143095686   -0.39318419086552
N       -17.50275894547503    0.65843150174299   -0.66175156615231
C       -19.07705262623893    1.99056457742159    0.64173230087721
C       -18.19291719976802    2.51398206010336    1.57238992942245
C       -18.47571054544557    3.40243151413595    2.64920981364374
C       -17.30311476850571    3.64950045658560    3.29948956671645
C       -16.27364754537862    2.91848590661952    2.63760810788733
N       -16.85880228090214    2.25315195465942    1.60727554158262
C       -14.92923129019596    2.88700619103877    2.97625360472196
C       -13.91485351366072    2.18152863526967    2.34586300879553
N       -14.03313419429107    1.37611561185641    1.26346862480446
H       -12.18715751124631    2.79962706737886    3.63887937507135
H       -10.78625668152216    1.21025676887202    1.96369910389127
H       -12.09658201013684   -1.73785698159264   -2.29219606745398
H       -14.39681472489749   -2.21564617664806   -3.57023956673761
H       -15.15417970123598    0.39506344714269   -0.34097779161937
H       -16.90379243553535   -1.42940369700160   -3.23911884393718
H       -19.36808944299357   -0.74641635316983   -3.03142145198018
H       -20.75565780416236    0.83824410645705   -1.34004858879144
H       -20.11459259549869    2.27933757645717    0.72804477742456
H       -19.44791293621605    3.79122241160013    2.88236025196627
H       -17.15082794268303    4.27596222263486    4.15699746438280
H       -16.39193702147765    1.64460988176557    0.94567657761540
H       -14.63865904004654    3.48173731390437    3.83136898503695
C        14.03982944125957   -2.81856829233538    1.39334659169423
C        12.91988934622313   -2.20496976592097    0.96393400888253
C        13.32351275874619   -0.86548837585108    0.57504981007044
C        12.42594230659699    0.09155381387014    0.06172292926862
C        12.79161966712409    1.38839091416246   -0.33564701774099
C        11.94350763801623    2.39691967762009   -0.86656985637877
C        12.71472266832769    3.49799136206311   -1.10405872266385
C        14.04986048829474    3.18620906589553   -0.72177333802469
N        14.04502093071377    1.90224176133930   -0.26746692931192
C        15.14755149080086    4.03126366990791   -0.79115788527178
C        16.45370154022904    3.74914965037625   -0.41575460459109
C        17.53085503408937    4.72250802845132   -0.52577006348812
C        18.64024799993481    4.10789788506010   -0.07556035044638
C        18.23221441100722    2.76444684437698    0.30535094317235
N        16.91222716539120    2.58475417116147    0.08803691661157
C        19.10972110883319    1.81725600878423    0.81785639620573
C        18.77035886584730    0.52629597496371    1.19223386698947
C        19.62180481678273   -0.48745580823616    1.71765036403711
C        18.85743047397417   -1.59435982150359    1.94003913423313
C        17.51932683916372   -1.28581800724194    1.55738585946066
N        17.51931105361033   -0.00103122109606    1.11457255765606
C        16.42145043476954   -2.13058018225322    1.62522635958536
C        15.11250503061832   -1.84652745547479    1.26494177917606
N        14.64022797068842   -0.67939323790285    0.76555136066394
H        14.16241539251312   -3.81801587282089    1.76424270201194
H        11.91856593354050   -2.58513137623240    0.90152960140435
H        10.89081161591982    2.28254131186626   -1.03791748295628
H        12.39839691307214    4.44147776377544   -1.50439979006312
H        14.84828968201836    1.39038942165358    0.07877542483288
H        14.96064925734662    5.02309158007968   -1.17912832661888
H        17.41403959377128    5.72221068797500   -0.89840128918610
H        19.64061799621410    4.48809615640350    0.00510293716479
H        20.14325707878606    2.11020101619355    0.93317758951102
H        20.67326304090331   -0.37154158210781    1.89566108593389
H        19.17640233095510   -2.54073716671394    2.33192521545851
H        16.71728154564206    0.51367839554543    0.77137355421872
H        16.60797435139003   -3.12510645963014    2.00666710013426
C       -11.10354453212206   -0.32522078541348   -0.16174779332769
C        -9.92482058017508   -0.62653367974893   -0.25091480139535
C        -8.62461487328358   -0.92255000511129   -0.34455034305757
C        -7.42739925919016   -1.16676541318215   -0.42046021212331
C        -6.11104444879653   -1.38404503756572   -0.50039649825748
C        -4.90403145083077   -1.55042592067615   -0.56495793051916
C         4.88465549264940   -1.52031828533296   -0.43314223039924
C         6.09009044850509   -1.33903207575747   -0.37108173674408
C         7.40392114094464   -1.10904720184968   -0.29811310344372
C         8.60020598847925   -0.85770678608797   -0.22449539995391
C         9.89920286624972   -0.55739224605059   -0.13958075546712
C        11.07947768561356   -0.25990467037954   -0.05479764394249
C        -2.56204887674609   -3.58117996370351    2.25076220377461
C        -3.52910512456651   -3.02901810176906    1.49208612776207
C        -2.84514269134060   -2.35767693374958    0.40241851997632
C        -3.51485755134864   -1.67258301770041   -0.63004202447207
C        -2.86229091213507   -1.08239305865214   -1.72553908653637
C        -3.45279286606734   -0.43063683737817   -2.83980577893415
C        -2.43822874442011   -0.01829767711257   -3.65576727940467
C        -1.20808845152036   -0.39978437799586   -3.05082095660760
N        -1.51690393200289   -1.04571198136554   -1.89295052218444
C         0.06315974294028   -0.12706675787956   -3.53674128112546
C         1.28498366401359   -0.41454109509594   -2.94980895204342
C         2.54697444300607    0.00051439507911   -3.53863470098245
C         3.51195884618567   -0.40104295273861   -2.68830721758478
C         2.82784133891452   -1.07145357441216   -1.59795819783525
N         1.49701274022902   -1.06440665193703   -1.78002499061274
C         3.49871492358524   -1.66151933637330   -0.50738039956596
C         2.84872652006790   -2.37194472044919    0.51547838121691
C         3.43863998189688   -3.04872994696262    1.61488246388814
C         2.42506419678697   -3.59932146700871    2.34629776971515
C         1.19553942562610   -3.26066738688247    1.71464854337972
N         1.50452856789938   -2.52650744645958    0.61057407733428
C        -0.07538316136391   -3.58970336473285    2.16566796531143
C        -1.29890721478912   -3.22563292002005    1.62554256537911
N        -1.51216476081744   -2.49185416147471    0.50732946918040
H        -2.65707574034795   -4.16379832959537    3.14687462194900
H        -4.59396135306944   -3.05914552288664    1.62007424795811
H        -4.50774261364733   -0.30455657042029   -2.98687051198164
H        -2.52362971967399    0.50667953690509   -4.58721983461468
H        -0.86599493533934   -1.44620434737974   -1.22625897864949
H         0.10157891279908    0.40207986352210   -4.47930506639803
H         2.64270115291930    0.52951480575445   -4.46729884895131
H         4.57543828752631   -0.28128473811162   -2.76270687424913
H         4.49268195128526   -3.10257770797646    1.80647096139085
H         2.51063885612090   -4.18117034399167    3.24334179922244
H         0.85435353393531   -2.13177427428501   -0.06024530504251
H        -0.11304743491411   -4.18258961777990    3.06959021866349
