      -----------------------------------------------------------      
     |                   =====================                   |     
     |                           x T B                           |     
     |                   =====================                   |     
     |                         S. Grimme                         |     
     |          Mulliken Center for Theoretical Chemistry        |     
     |                    University of Bonn                     |     
      -----------------------------------------------------------      

   * xtb version 6.4.1 (bd6e46d) compiled by 'conda@4901f00b25ba' on 2021-06-10

   xtb is free software: you can redistribute it and/or modify it under
   the terms of the GNU Lesser General Public License as published by
   the Free Software Foundation, either version 3 of the License, or
   (at your option) any later version.
   
   xtb is distributed in the hope that it will be useful,
   but WITHOUT ANY WARRANTY; without even the implied warranty of
   MERCHANTABILITY or FITNESS FOR A PARTICULAR PURPOSE.  See the
   GNU Lesser General Public License for more details.
   
   Cite this work as:
   * C. Bannwarth, E. Caldeweyher, S. Ehlert, A. Hansen, P. Pracht,
     J. Seibert, S. Spicher, S. Grimme, WIREs Comput. Mol. Sci., 2020, 11,
     e01493. DOI: 10.1002/wcms.1493
   
   for GFN2-xTB:
   * C. Bannwarth, S. Ehlert and S. Grimme., J. Chem. Theory Comput., 2019,
     15, 1652-1671. DOI: 10.1021/acs.jctc.8b01176
   for GFN1-xTB:
   * S. Grimme, C. Bannwarth, P. Shushkov, J. Chem. Theory Comput., 2017,
     13, 1989-2009. DOI: 10.1021/acs.jctc.7b00118
   for GFN0-xTB:
   * P. Pracht, E. Caldeweyher, S. Ehlert, S. Grimme, ChemRxiv, 2019, preprint.
     DOI: 10.26434/chemrxiv.8326202.v1
   for GFN-FF:
   * S. Spicher and S. Grimme, Angew. Chem. Int. Ed., 2020, 59, 15665-15673.
     DOI: 10.1002/anie.202004239
   
   for DFT-D4:
   * E. Caldeweyher, C. Bannwarth and S. Grimme, J. Chem. Phys., 2017,
     147, 034112. DOI: 10.1063/1.4993215
   * E. Caldeweyher, S. Ehlert, A. Hansen, H. Neugebauer, S. Spicher,
     C. Bannwarth and S. Grimme, J. Chem. Phys., 2019, 150, 154122.
     DOI: 10.1063/1.5090222
   * E. Caldeweyher, J.-M. Mewes, S. Ehlert and S. Grimme, Phys. Chem. Chem. Phys.
     2020, 22, 8499-8512. DOI: 10.1039/D0CP00502A
   
   for sTDA-xTB:
   * S. Grimme and C. Bannwarth, J. Chem. Phys., 2016, 145, 054103.
     DOI: 10.1063/1.4959605
   
   in the mass-spec context:
   * V. Asgeirsson, C. Bauer and S. Grimme, Chem. Sci., 2017, 8, 4879.
     DOI: 10.1039/c7sc00601b
   * J. Koopman and S. Grimme, ACS Omega 2019, 4, 12, 15120-15133.
     DOI: 10.1021/acsomega.9b02011
   
   for metadynamics refer to:
   * S. Grimme, J. Chem. Theory Comput., 2019, 155, 2847-2862
     DOI: 10.1021/acs.jctc.9b00143
   
   for SPH calculations refer to:
   * S. Spicher and S. Grimme, J. Chem. Theory Comput., 2021, 17, 1701-1714
     DOI: 10.1021/acs.jctc.0c01306
   
   with help from (in alphabetical order)
   P. Atkinson, C. Bannwarth, F. Bohle, G. Brandenburg, E. Caldeweyher
   M. Checinski, S. Dohm, S. Ehlert, S. Ehrlich, I. Gerasimov, J. Koopman
   C. Lavigne, S. Lehtola, F. März, M. Müller, F. Musil, H. Neugebauer
   J. Pisarek, C. Plett, P. Pracht, J. Seibert, P. Shushkov, S. Spicher
   M. Stahn, M. Steiner, T. Strunk, J. Stückrath, T. Rose, and J. Unsleber
   
 * started run on 2021/11/20 at 15:54:28.035     

           -------------------------------------------------
          |                Calculation Setup                |
           -------------------------------------------------

          program call               : /home/jeff/miniconda3/bin/xtb /home/jeff/chem/final-year-proejct/Co+2_2_2_outenergy/input_structure.xyz --gfn 2 --parallel 1 --etemp 300 --chrg 0 --uhf 0 -I det_control.in
          coordinate file            : /home/jeff/chem/final-year-proejct/Co+2_2_2_outenergy/input_structure.xyz
          omp threads                :                     1
          number of atoms            :                    74
          number of electrons        :                   248
          charge                     :                     0
          spin                       :                   0.0
          first test random number   :      0.90953786135397

   ID    Z sym.   atoms
    1   27 Co     1, 39
    2    6 C      2-9, 11-15, 17-21, 23, 24, 37, 38, 40-47, 49-53, 55-59, 61,
                  62
    3    7 N      10, 16, 22, 25, 48, 54, 60, 63
    4    1 H      26-36, 64-74

           -------------------------------------------------
          |                 G F N 2 - x T B                 |
           -------------------------------------------------

        Reference                      10.1021/acs.jctc.8b01176
      * Hamiltonian:
        H0-scaling (s, p, d)           1.850000    2.230000    2.230000
        zeta-weighting                 0.500000
      * Dispersion:
        s8                             2.700000
        a1                             0.520000
        a2                             5.000000
        s9                             5.000000
      * Repulsion:
        kExp                           1.500000    1.000000
        rExp                           1.000000
      * Coulomb:
        alpha                          2.000000
        third order                    shell-resolved
        anisotropic                    true
        a3                             3.000000
        a5                             4.000000
        cn-shift                       1.200000
        cn-exp                         4.000000
        max-rad                        5.000000


          ...................................................
          :                      SETUP                      :
          :.................................................:
          :  # basis functions                 242          :
          :  # atomic orbitals                 240          :
          :  # shells                          128          :
          :  # electrons                       248          :
          :  max. iterations                   250          :
          :  Hamiltonian                  GFN2-xTB          :
          :  restarted?                      false          :
          :  GBSA solvation                  false          :
          :  PC potential                    false          :
          :  electronic temp.          300.0000000     K    :
          :  accuracy                    1.0000000          :
          :  -> integral cutoff          0.2500000E+02      :
          :  -> integral neglect         0.1000000E-07      :
          :  -> SCF convergence          0.1000000E-05 Eh   :
          :  -> wf. convergence          0.1000000E-03 e    :
          :  Broyden damping             0.4000000          :
          ...................................................

 iter      E             dE          RMSdq      gap      omega  full diag
   1   -133.6753569 -0.133675E+03  0.699E+00    0.40       0.0  T
   2   -127.2131793  0.646218E+01  0.878E+00    0.02       1.0  T
   3   -124.1233533  0.308983E+01  0.832E+00    0.04       1.0  T
   4   -131.1711002 -0.704775E+01  0.612E+00    0.58       1.0  T
   5   -124.0237426  0.714736E+01  0.570E+00    0.04       1.0  T
   6   -133.4911975 -0.946745E+01  0.337E+00    0.07       1.0  T
   7   -133.7487217 -0.257524E+00  0.285E+00    0.01       1.0  T
   8   -133.8845876 -0.135866E+00  0.255E+00    0.20       1.0  T
   9   -133.9654798 -0.808922E-01  0.225E+00    0.11       1.0  T
  10   -133.9622667  0.321307E-02  0.226E+00    0.11       1.0  T
  11   -133.8867270  0.755397E-01  0.207E+00    0.05       1.0  T
  12   -133.8917252 -0.499812E-02  0.224E+00    0.06       1.0  T
  13   -133.8669360  0.247891E-01  0.182E+00    0.03       1.0  T
  14   -133.8886886 -0.217526E-01  0.175E+00    0.03       1.0  T
  15   -133.8081962  0.804925E-01  0.226E+00    0.01       1.0  T
  16   -134.1902653 -0.382069E+00  0.958E-01    0.01       1.0  T
  17   -134.1863197  0.394558E-02  0.938E-01    0.01       1.0  T
  18   -134.1576434  0.286763E-01  0.995E-01    0.03       1.0  T
  19   -134.1154902  0.421532E-01  0.113E+00    0.03       1.0  T
  20   -134.2301082 -0.114618E+00  0.593E-01    0.00       1.0  T
  21   -134.1511298  0.789783E-01  0.955E-01    0.04       1.0  T
  22   -134.1879454 -0.368156E-01  0.782E-01    0.03       1.0  T
  23   -134.2264270 -0.384816E-01  0.467E-01    0.01       1.0  T
  24   -134.2330702 -0.664328E-02  0.377E-01    0.01       1.0  T
  25   -134.2341539 -0.108361E-02  0.328E-01    0.00       1.0  T
  26   -134.2344034 -0.249506E-03  0.287E-01    0.01       1.0  T
  27   -134.2325169  0.188644E-02  0.266E-01    0.01       1.0  T
  28   -134.2351934 -0.267647E-02  0.183E-01    0.01       1.0  T
  29   -134.2368143 -0.162091E-02  0.834E-02    0.01       1.0  T
  30   -134.2373781 -0.563810E-03  0.200E-02    0.01       1.0  T
  31   -134.2373272  0.508684E-04  0.254E-02    0.01       1.0  T
  32   -134.2373555 -0.282330E-04  0.199E-02    0.01       1.0  T
  33   -134.2373731 -0.176263E-04  0.127E-02    0.01       1.0  T
  34   -134.2373865 -0.133881E-04  0.535E-03    0.01       2.2  T
  35   -134.2373886 -0.215503E-05  0.270E-03    0.01       4.3  T
  36   -134.2373883  0.354023E-06  0.288E-03    0.01       4.0  T
  37   -134.2373891 -0.842308E-06  0.455E-04    0.01      25.6  T
  38   -134.2373891  0.284643E-09  0.313E-04    0.01      37.1  T

   *** convergence criteria satisfied after 38 iterations ***

         #    Occupation            Energy/Eh            Energy/eV
      -------------------------------------------------------------
         1        2.0000           -0.6683104             -18.1857
       ...           ...                  ...                  ...
       118        1.9145           -0.3464817              -9.4282
       119        1.9033           -0.3463586              -9.4249
       120        1.8918           -0.3462463              -9.4218
       121        1.8757           -0.3461064              -9.4180
       122        1.8243           -0.3457509              -9.4084
       123        1.8150           -0.3456973              -9.4069
       124        1.4369           -0.3444176              -9.3721 (HOMO)
       125        1.3384           -0.3441971              -9.3661 (LUMO)
       126                         -0.3053774              -8.3097
       127                         -0.2954768              -8.0403
       128                         -0.2950174              -8.0278
       129                         -0.2894638              -7.8767
       ...                                ...                  ...
       240                          1.4143988              38.4878
      -------------------------------------------------------------
                  HL-Gap            0.0002205 Eh            0.0060 eV
             Fermi-level           -0.3435277 Eh           -9.3479 eV

 SCC (total)                   0 d,  0 h,  0 min,  0.530 sec
 SCC setup                      ...        0 min,  0.001 sec (  0.211%)
 Dispersion                     ...        0 min,  0.002 sec (  0.421%)
 classical contributions        ...        0 min,  0.000 sec (  0.082%)
 integral evaluation            ...        0 min,  0.026 sec (  4.886%)
 iterations                     ...        0 min,  0.418 sec ( 78.769%)
 molecular gradient             ...        0 min,  0.082 sec ( 15.433%)
 printout                       ...        0 min,  0.001 sec (  0.196%)

         :::::::::::::::::::::::::::::::::::::::::::::::::::::
         ::                     SUMMARY                     ::
         :::::::::::::::::::::::::::::::::::::::::::::::::::::
         :: total energy            -131.993250179576 Eh    ::
         :: gradient norm              0.000295137793 Eh/a0 ::
         :: HOMO-LUMO gap              0.006001144772 eV    ::
         ::.................................................::
         :: SCC energy              -134.237389125345 Eh    ::
         :: -> isotropic ES            0.032454923023 Eh    ::
         :: -> anisotropic ES          0.018247133634 Eh    ::
         :: -> anisotropic XC          0.066221711276 Eh    ::
         :: -> dispersion             -0.118611370031 Eh    ::
         :: repulsion energy           2.245338698655 Eh    ::
         :: add. restraining           0.000000000000 Eh    ::
         :: total charge               0.000000000044 e     ::
         :::::::::::::::::::::::::::::::::::::::::::::::::::::

           -------------------------------------------------
          |                Property Printout                |
           -------------------------------------------------

    * Orbital Energies and Occupations

         #    Occupation            Energy/Eh            Energy/eV
      -------------------------------------------------------------
         1        2.0000           -0.6683104             -18.1857
       ...           ...                  ...                  ...
       112        2.0000           -0.4019170             -10.9367
       113        2.0000           -0.4017471             -10.9321
       114        2.0000           -0.3712342             -10.1018
       115        2.0000           -0.3679150             -10.0115
       116        2.0000           -0.3675889             -10.0026
       117        2.0000           -0.3568690              -9.7109
       118        1.9145           -0.3464817              -9.4282
       119        1.9033           -0.3463586              -9.4249
       120        1.8918           -0.3462463              -9.4218
       121        1.8757           -0.3461064              -9.4180
       122        1.8243           -0.3457509              -9.4084
       123        1.8150           -0.3456973              -9.4069
       124        1.4369           -0.3444176              -9.3721 (HOMO)
       125        1.3384           -0.3441971              -9.3661 (LUMO)
       126                         -0.3053774              -8.3097
       127                         -0.2954768              -8.0403
       128                         -0.2950174              -8.0278
       129                         -0.2894638              -7.8767
       130                         -0.2610446              -7.1034
       131                         -0.2605547              -7.0901
       132                         -0.2571277              -6.9968
       133                         -0.2518384              -6.8529
       134                         -0.1910542              -5.1989
       135                         -0.1910160              -5.1978
       ...                                ...                  ...
       240                          1.4143988              38.4878
      -------------------------------------------------------------
                  HL-Gap            0.0002205 Eh            0.0060 eV
             Fermi-level           -0.3435277 Eh           -9.3479 eV

     #   Z          covCN         q      C6AA      α(0)
     1  27 Co       3.058     0.098   140.958    24.325
     2   6 C        3.024    -0.053    29.297     8.878
     3   6 C        3.023    -0.051    29.249     8.871
     4   6 C        3.192     0.072    25.913     8.302
     5   6 C        2.956     0.018    27.597     8.617
     6   6 C        3.194     0.072    25.906     8.300
     7   6 C        3.022    -0.052    29.264     8.873
     8   6 C        3.024    -0.053    29.296     8.878
     9   6 C        3.180     0.072    25.994     8.324
    10   7 N        2.631    -0.130    23.839     7.251
    11   6 C        2.905    -0.050    29.247     8.868
    12   6 C        3.177     0.073    25.988     8.324
    13   6 C        3.021    -0.052    29.275     8.875
    14   6 C        3.022    -0.052    29.277     8.876
    15   6 C        3.177     0.073    25.982     8.323
    16   7 N        2.632    -0.129    23.811     7.247
    17   6 C        2.905    -0.052    29.287     8.874
    18   6 C        3.177     0.073    25.982     8.323
    19   6 C        3.022    -0.052    29.277     8.875
    20   6 C        3.021    -0.052    29.275     8.875
    21   6 C        3.177     0.073    25.988     8.324
    22   7 N        2.632    -0.129    23.811     7.247
    23   6 C        2.905    -0.050    29.248     8.868
    24   6 C        3.180     0.072    25.993     8.323
    25   7 N        2.631    -0.130    23.839     7.251
    26   1 H        0.926     0.034     2.531     2.488
    27   1 H        0.926     0.035     2.520     2.483
    28   1 H        0.926     0.036     2.503     2.474
    29   1 H        0.926     0.034     2.531     2.488
    30   1 H        0.926     0.049     2.328     2.386
    31   1 H        0.926     0.034     2.527     2.486
    32   1 H        0.926     0.034     2.529     2.487
    33   1 H        0.926     0.049     2.336     2.390
    34   1 H        0.926     0.034     2.529     2.487
    35   1 H        0.926     0.034     2.528     2.486
    36   1 H        0.926     0.049     2.328     2.386
    37   6 C        1.990    -0.029    31.817     9.109
    38   6 C        1.990    -0.030    31.840     9.113
    39  27 Co       3.086     0.099   140.945    24.323
    40   6 C        3.023    -0.053    29.296     8.878
    41   6 C        3.022    -0.052    29.265     8.874
    42   6 C        3.189     0.072    25.941     8.308
    43   6 C        2.956     0.019    27.582     8.614
    44   6 C        3.188     0.072    25.943     8.310
    45   6 C        3.022    -0.051    29.244     8.871
    46   6 C        3.023    -0.053    29.298     8.879
    47   6 C        3.176     0.072    26.019     8.330
    48   7 N        2.638    -0.130    23.832     7.250
    49   6 C        2.904    -0.050    29.236     8.866
    50   6 C        3.173     0.072    26.015     8.331
    51   6 C        3.021    -0.052    29.275     8.875
    52   6 C        3.021    -0.052    29.278     8.876
    53   6 C        3.173     0.073    26.009     8.330
    54   7 N        2.640    -0.129    23.800     7.245
    55   6 C        2.904    -0.051    29.275     8.872
    56   6 C        3.173     0.073    26.008     8.330
    57   6 C        3.021    -0.052    29.277     8.876
    58   6 C        3.021    -0.052    29.276     8.875
    59   6 C        3.173     0.072    26.015     8.331
    60   7 N        2.640    -0.129    23.800     7.245
    61   6 C        2.904    -0.050    29.234     8.866
    62   6 C        3.176     0.071    26.021     8.330
    63   7 N        2.640    -0.130    23.820     7.249
    64   1 H        0.926     0.034     2.527     2.486
    65   1 H        0.926     0.036     2.503     2.474
    66   1 H        0.926     0.035     2.516     2.480
    67   1 H        0.926     0.034     2.530     2.487
    68   1 H        0.926     0.049     2.327     2.385
    69   1 H        0.926     0.034     2.525     2.485
    70   1 H        0.926     0.034     2.526     2.486
    71   1 H        0.926     0.049     2.334     2.389
    72   1 H        0.926     0.034     2.526     2.485
    73   1 H        0.926     0.034     2.525     2.485
    74   1 H        0.926     0.049     2.326     2.385

 Mol. C6AA /au·bohr⁶  :     101853.332636
 Mol. C8AA /au·bohr⁸  :    2950945.780615
 Mol. α(0) /au        :        524.515905


Wiberg/Mayer (AO) data.
largest (>0.10) Wiberg bond orders for each atom

 ---------------------------------------------------------------------------
     #   Z sym  total        # sym  WBO       # sym  WBO       # sym  WBO
 ---------------------------------------------------------------------------
     1  27 Co   3.336 --    16 N    0.724    22 N    0.724    25 N    0.722
                            10 N    0.722
     2   6 C    3.953 --     3 C    1.643    24 C    1.173    26 H    0.972
     3   6 C    3.957 --     2 C    1.643     4 C    1.182    27 H    0.968
     4   6 C    3.923 --     5 C    1.265    25 N    1.260     3 C    1.182
     5   6 C    3.947 --     4 C    1.265     6 C    1.264    37 C    1.161
     6   6 C    3.922 --     5 C    1.264    10 N    1.259     7 C    1.181
     7   6 C    3.958 --     8 C    1.643     6 C    1.181    28 H    0.969
     8   6 C    3.954 --     7 C    1.643     9 C    1.173    29 H    0.972
     9   6 C    3.930 --    11 C    1.359    10 N    1.229     8 C    1.173
    10   7 N    3.514 --     6 C    1.259     9 C    1.229     1 Co   0.722
    11   6 C    3.939 --    12 C    1.359     9 C    1.359    30 H    0.963
    12   6 C    3.935 --    11 C    1.359    16 N    1.239    13 C    1.165
    13   6 C    3.957 --    14 C    1.658    12 C    1.165    31 H    0.972
    14   6 C    3.955 --    13 C    1.658    15 C    1.165    32 H    0.972
    15   6 C    3.936 --    17 C    1.357    16 N    1.242    14 C    1.165
    16   7 N    3.510 --    15 C    1.242    12 C    1.239     1 Co   0.724
    17   6 C    3.936 --    18 C    1.358    15 C    1.357    33 H    0.964
    18   6 C    3.936 --    17 C    1.358    22 N    1.242    19 C    1.165
    19   6 C    3.955 --    20 C    1.658    18 C    1.165    34 H    0.972
    20   6 C    3.957 --    19 C    1.658    21 C    1.166    35 H    0.972
    21   6 C    3.935 --    23 C    1.359    22 N    1.239    20 C    1.166
    22   7 N    3.510 --    18 C    1.242    21 C    1.239     1 Co   0.724
    23   6 C    3.939 --    24 C    1.359    21 C    1.359    36 H    0.963
    24   6 C    3.930 --    23 C    1.359    25 N    1.229     2 C    1.173
    25   7 N    3.514 --     4 C    1.260    24 C    1.229     1 Co   0.722
    26   1 H    0.998 --     2 C    0.972
    27   1 H    0.998 --     3 C    0.968
    28   1 H    0.998 --     7 C    0.969
    29   1 H    0.998 --     8 C    0.972
    30   1 H    0.996 --    11 C    0.963
    31   1 H    0.998 --    13 C    0.972
    32   1 H    0.998 --    14 C    0.972
    33   1 H    0.996 --    17 C    0.964
    34   1 H    0.998 --    19 C    0.972
    35   1 H    0.998 --    20 C    0.972
    36   1 H    0.996 --    23 C    0.963
    37   6 C    3.928 --    38 C    2.588     5 C    1.161
    38   6 C    3.929 --    37 C    2.588    43 C    1.162
    39  27 Co   3.365 --    54 N    0.726    60 N    0.726    63 N    0.724
                            48 N    0.723
    40   6 C    3.954 --    41 C    1.642    62 C    1.174    64 H    0.972
    41   6 C    3.958 --    40 C    1.642    42 C    1.182    65 H    0.969
    42   6 C    3.923 --    43 C    1.261    63 N    1.260    41 C    1.182
    43   6 C    3.946 --    44 C    1.265    42 C    1.261    38 C    1.162
    44   6 C    3.923 --    43 C    1.265    48 N    1.258    45 C    1.182
    45   6 C    3.958 --    46 C    1.642    44 C    1.182    66 H    0.968
    46   6 C    3.954 --    45 C    1.642    47 C    1.174    67 H    0.972
    47   6 C    3.930 --    49 C    1.356    48 N    1.230    46 C    1.174
    48   7 N    3.514 --    44 C    1.258    47 C    1.230    39 Co   0.723
    49   6 C    3.937 --    50 C    1.358    47 C    1.356    68 H    0.964
    50   6 C    3.935 --    49 C    1.358    54 N    1.237    51 C    1.165
    51   6 C    3.957 --    52 C    1.657    50 C    1.165    69 H    0.972
    52   6 C    3.955 --    51 C    1.657    53 C    1.165    70 H    0.972
    53   6 C    3.937 --    55 C    1.356    54 N    1.242    52 C    1.165
    54   7 N    3.511 --    53 C    1.242    50 C    1.237    39 Co   0.726
    55   6 C    3.934 --    56 C    1.357    53 C    1.356    71 H    0.964
    56   6 C    3.937 --    55 C    1.357    60 N    1.241    57 C    1.165
    57   6 C    3.955 --    58 C    1.656    56 C    1.165    72 H    0.972
    58   6 C    3.957 --    57 C    1.656    59 C    1.166    73 H    0.972
    59   6 C    3.935 --    61 C    1.356    60 N    1.239    58 C    1.166
    60   7 N    3.511 --    56 C    1.241    59 C    1.239    39 Co   0.726
    61   6 C    3.937 --    62 C    1.359    59 C    1.356    74 H    0.964
    62   6 C    3.930 --    61 C    1.359    63 N    1.227    40 C    1.174
    63   7 N    3.514 --    42 C    1.260    62 C    1.227    39 Co   0.724
    64   1 H    0.998 --    40 C    0.972
    65   1 H    0.998 --    41 C    0.969
    66   1 H    0.998 --    45 C    0.968
    67   1 H    0.998 --    46 C    0.972
    68   1 H    0.996 --    49 C    0.964
    69   1 H    0.998 --    51 C    0.972
    70   1 H    0.998 --    52 C    0.972
    71   1 H    0.996 --    55 C    0.964
    72   1 H    0.998 --    57 C    0.972
    73   1 H    0.998 --    58 C    0.972
    74   1 H    0.996 --    61 C    0.964
 ---------------------------------------------------------------------------

Topologies differ in total number of bonds
Writing topology from bond orders to xtbtopo.mol

molecular dipole:
                 x           y           z       tot (Debye)
 q only:        0.051       0.017       0.002
   full:        0.054       0.020      -0.001       0.145
molecular quadrupole (traceless):
                xx          xy          yy          xz          yz          zz
 q only:       14.226       1.156       3.916      -1.185      -0.113     -18.141
  q+dip:       29.789       1.927      12.713      -3.210      -0.352     -42.502
   full:       19.740       1.457       6.605      -1.952      -0.152     -26.345


           -------------------------------------------------
          | TOTAL ENERGY             -131.993250179576 Eh   |
          | GRADIENT NORM               0.000295137793 Eh/α |
          | HOMO-LUMO GAP               0.006001144772 eV   |
           -------------------------------------------------

------------------------------------------------------------------------
 * finished run on 2021/11/20 at 15:54:28.599     
------------------------------------------------------------------------
 total:
 * wall-time:     0 d,  0 h,  0 min,  0.564 sec
 *  cpu-time:     0 d,  0 h,  0 min,  0.564 sec
 * ratio c/w:     1.000 speedup
 SCF:
 * wall-time:     0 d,  0 h,  0 min,  0.531 sec
 *  cpu-time:     0 d,  0 h,  0 min,  0.531 sec
 * ratio c/w:     1.000 speedup

