      -----------------------------------------------------------      
     |                   =====================                   |     
     |                           x T B                           |     
     |                   =====================                   |     
     |                         S. Grimme                         |     
     |          Mulliken Center for Theoretical Chemistry        |     
     |                    University of Bonn                     |     
      -----------------------------------------------------------      

   * xtb version 6.4.1 (bd6e46d) compiled by 'conda@4901f00b25ba' on 2021-06-10

   xtb is free software: you can redistribute it and/or modify it under
   the terms of the GNU Lesser General Public License as published by
   the Free Software Foundation, either version 3 of the License, or
   (at your option) any later version.
   
   xtb is distributed in the hope that it will be useful,
   but WITHOUT ANY WARRANTY; without even the implied warranty of
   MERCHANTABILITY or FITNESS FOR A PARTICULAR PURPOSE.  See the
   GNU Lesser General Public License for more details.
   
   Cite this work as:
   * C. Bannwarth, E. Caldeweyher, S. Ehlert, A. Hansen, P. Pracht,
     J. Seibert, S. Spicher, S. Grimme, WIREs Comput. Mol. Sci., 2020, 11,
     e01493. DOI: 10.1002/wcms.1493
   
   for GFN2-xTB:
   * C. Bannwarth, S. Ehlert and S. Grimme., J. Chem. Theory Comput., 2019,
     15, 1652-1671. DOI: 10.1021/acs.jctc.8b01176
   for GFN1-xTB:
   * S. Grimme, C. Bannwarth, P. Shushkov, J. Chem. Theory Comput., 2017,
     13, 1989-2009. DOI: 10.1021/acs.jctc.7b00118
   for GFN0-xTB:
   * P. Pracht, E. Caldeweyher, S. Ehlert, S. Grimme, ChemRxiv, 2019, preprint.
     DOI: 10.26434/chemrxiv.8326202.v1
   for GFN-FF:
   * S. Spicher and S. Grimme, Angew. Chem. Int. Ed., 2020, 59, 15665-15673.
     DOI: 10.1002/anie.202004239
   
   for DFT-D4:
   * E. Caldeweyher, C. Bannwarth and S. Grimme, J. Chem. Phys., 2017,
     147, 034112. DOI: 10.1063/1.4993215
   * E. Caldeweyher, S. Ehlert, A. Hansen, H. Neugebauer, S. Spicher,
     C. Bannwarth and S. Grimme, J. Chem. Phys., 2019, 150, 154122.
     DOI: 10.1063/1.5090222
   * E. Caldeweyher, J.-M. Mewes, S. Ehlert and S. Grimme, Phys. Chem. Chem. Phys.
     2020, 22, 8499-8512. DOI: 10.1039/D0CP00502A
   
   for sTDA-xTB:
   * S. Grimme and C. Bannwarth, J. Chem. Phys., 2016, 145, 054103.
     DOI: 10.1063/1.4959605
   
   in the mass-spec context:
   * V. Asgeirsson, C. Bauer and S. Grimme, Chem. Sci., 2017, 8, 4879.
     DOI: 10.1039/c7sc00601b
   * J. Koopman and S. Grimme, ACS Omega 2019, 4, 12, 15120-15133.
     DOI: 10.1021/acsomega.9b02011
   
   for metadynamics refer to:
   * S. Grimme, J. Chem. Theory Comput., 2019, 155, 2847-2862
     DOI: 10.1021/acs.jctc.9b00143
   
   for SPH calculations refer to:
   * S. Spicher and S. Grimme, J. Chem. Theory Comput., 2021, 17, 1701-1714
     DOI: 10.1021/acs.jctc.0c01306
   
   with help from (in alphabetical order)
   P. Atkinson, C. Bannwarth, F. Bohle, G. Brandenburg, E. Caldeweyher
   M. Checinski, S. Dohm, S. Ehlert, S. Ehrlich, I. Gerasimov, J. Koopman
   C. Lavigne, S. Lehtola, F. März, M. Müller, F. Musil, H. Neugebauer
   J. Pisarek, C. Plett, P. Pracht, J. Seibert, P. Shushkov, S. Spicher
   M. Stahn, M. Steiner, T. Strunk, J. Stückrath, T. Rose, and J. Unsleber
   
 * started run on 2021/11/18 at 23:20:45.789     

           -------------------------------------------------
          |                Calculation Setup                |
           -------------------------------------------------

          program call               : /home/jeff/miniconda3/bin/xtb input_structure_1.xyz --gfn 2 --ohess normal --parallel 1 --etemp 300 --chrg 0 --uhf 0 -I det_control.in
          hostname                   : jelfscompute1
          coordinate file            : input_structure_1.xyz
          omp threads                :                     1
          number of atoms            :                   283
          number of electrons        :                   930
          charge                     :                     0
          spin                       :                   0.0
          first test random number   :      0.17235832334731

   ID    Z sym.   atoms
    1   30 Zn     1, 37, 109, 144, 179, 214, 249
    2    6 C      2-9, 11-15, 17-21, 23, 24, 38-45, 47-51, 53-57, 59, 60,
                  73-108, 110-117, 119-123, 125-129, 131, 132, 145-152,
                  154-158, 160-164, 166, 167, 180-187, 189-193, 195-199, 201,
                  202, 215-222, 224-228, 230-234, 236, 237, 250-257, 259-263,
                  265-269, 271, 272
    3    7 N      10, 16, 22, 25, 46, 52, 58, 61, 118, 124, 130, 133, 153,
                  159, 165, 168, 188, 194, 200, 203, 223, 229, 235, 238, 258,
                  264, 270, 273
    4    1 H      26-36, 62-72, 134-143, 169-178, 204-213, 239-248, 274-283

molecular fragmentation (1/2 indicates fragments):
111111111111111111111111111111111111222222222222222222222222222222222222
222222222222222222222222222222222222222222222222222222222222222222222222
222222222222222222222222222222222222222222222222222222222222222222222222
2222222222222222222222222222222222222222222222222222222222222222222
# atoms in fragment 1/2:    36   247
 fragment masses (1/2) :      372.71     2663.59
CMA distance (Bohr)    : 104.730
constraining FC (au)   :  0.0500

           -------------------------------------------------
          |                 G F N 2 - x T B                 |
           -------------------------------------------------

        Reference                      10.1021/acs.jctc.8b01176
      * Hamiltonian:
        H0-scaling (s, p, d)           1.850000    2.230000    2.230000
        zeta-weighting                 0.500000
      * Dispersion:
        s8                             2.700000
        a1                             0.520000
        a2                             5.000000
        s9                             5.000000
      * Repulsion:
        kExp                           1.500000    1.000000
        rExp                           1.000000
      * Coulomb:
        alpha                          2.000000
        third order                    shell-resolved
        anisotropic                    true
        a3                             3.000000
        a5                             4.000000
        cn-shift                       1.200000
        cn-exp                         4.000000
        max-rad                        5.000000


          ...................................................
          :                      SETUP                      :
          :.................................................:
          :  # basis functions                 916          :
          :  # atomic orbitals                 916          :
          :  # shells                          494          :
          :  # electrons                       930          :
          :  max. iterations                   250          :
          :  Hamiltonian                  GFN2-xTB          :
          :  restarted?                      false          :
          :  GBSA solvation                  false          :
          :  PC potential                    false          :
          :  electronic temp.          300.0000000     K    :
          :  accuracy                    1.0000000          :
          :  -> integral cutoff          0.2500000E+02      :
          :  -> integral neglect         0.1000000E-07      :
          :  -> SCF convergence          0.1000000E-05 Eh   :
          :  -> wf. convergence          0.1000000E-03 e    :
          :  Broyden damping             0.4000000          :
          ...................................................

 iter      E             dE          RMSdq      gap      omega  full diag
   1   -504.8301148 -0.504830E+03  0.736E+00    0.06       0.0  T
   2   -456.6139204  0.482162E+02  0.583E+00    0.03       1.0  T
   3    201.6830671  0.658297E+03  0.213E+01    0.00       1.0  T
   4   -406.1251427 -0.607808E+03  0.791E+00    0.04       1.0  T
   5   -130.8261016  0.275299E+03  0.190E+01    0.02       1.0  T
   6   -478.2704345 -0.347444E+03  0.490E+00    0.04       1.0  T
   7   -471.2342128  0.703622E+01  0.446E+00    0.04       1.0  T
   8   -493.8729423 -0.226387E+02  0.355E+00    0.02       1.0  T
   9   -502.9417318 -0.906879E+01  0.273E+00    0.13       1.0  T
  10   -501.3366696  0.160506E+01  0.249E+00    0.06       1.0  T
  11   -504.5617367 -0.322507E+01  0.204E+00    0.12       1.0  T
  12   -506.1948121 -0.163308E+01  0.182E+00    0.05       1.0  T
  13   -507.0414225 -0.846610E+00  0.158E+00    0.23       1.0  T
  14   -506.4833346  0.558088E+00  0.152E+00    0.05       1.0  T
  15   -506.4654674  0.178673E-01  0.154E+00    0.13       1.0  T
  16   -507.2332972 -0.767830E+00  0.118E+00    0.05       1.0  T
  17   -506.5366721  0.696625E+00  0.116E+00    0.10       1.0  T
  18   -507.2949813 -0.758309E+00  0.864E-01    0.09       1.0  T
  19   -507.3264241 -0.314428E-01  0.782E-01    0.09       1.0  T
  20   -507.3549904 -0.285663E-01  0.689E-01    0.16       1.0  T
  21   -507.3447143  0.102762E-01  0.610E-01    0.10       1.0  T
  22   -507.3609040 -0.161898E-01  0.529E-01    0.11       1.0  T
  23   -507.3839486 -0.230445E-01  0.490E-01    0.12       1.0  T
  24   -507.3556633  0.282852E-01  0.462E-01    0.11       1.0  T
  25   -507.4003802 -0.447169E-01  0.390E-01    0.13       1.0  T
  26   -507.4171786 -0.167984E-01  0.386E-01    0.08       1.0  T
  27   -507.4178600 -0.681408E-03  0.383E-01    0.09       1.0  T
  28   -507.4254681 -0.760807E-02  0.362E-01    0.08       1.0  T
  29   -507.4049742  0.204939E-01  0.366E-01    0.04       1.0  T
  30   -507.4330335 -0.280593E-01  0.321E-01    0.06       1.0  T
  31   -507.4208489  0.121845E-01  0.334E-01    0.05       1.0  T
  32   -507.4487369 -0.278879E-01  0.277E-01    0.07       1.0  T
  33   -507.4566190 -0.788208E-02  0.250E-01    0.08       1.0  T
  34   -507.4662322 -0.961319E-02  0.210E-01    0.09       1.0  T
  35   -507.4780048 -0.117726E-01  0.155E-01    0.11       1.0  T
  36   -507.4811252 -0.312042E-02  0.139E-01    0.11       1.0  T
  37   -507.4814284 -0.303184E-03  0.137E-01    0.10       1.0  T
  38   -507.4858407 -0.441229E-02  0.115E-01    0.09       1.0  T
  39   -507.4863105 -0.469849E-03  0.108E-01    0.09       1.0  T
  40   -507.4877995 -0.148893E-02  0.985E-02    0.09       1.0  T
  41   -507.4888330 -0.103358E-02  0.829E-02    0.07       1.0  T
  42   -507.4883860  0.447031E-03  0.760E-02    0.07       1.0  T
  43   -507.4898826 -0.149657E-02  0.611E-02    0.07       1.0  T
  44   -507.4886511  0.123151E-02  0.616E-02    0.06       1.0  T
  45   -507.4905927 -0.194160E-02  0.397E-02    0.07       1.0  T
  46   -507.4910192 -0.426499E-03  0.317E-02    0.08       1.0  T
  47   -507.4910449 -0.257636E-04  0.286E-02    0.08       1.0  T
  48   -507.4909127  0.132261E-03  0.276E-02    0.08       1.0  T
  49   -507.4910389 -0.126213E-03  0.235E-02    0.07       1.0  T
  50   -507.4910667 -0.278087E-04  0.200E-02    0.07       1.0  T
  51   -507.4911438 -0.770814E-04  0.170E-02    0.07       1.0  T
  52   -507.4911460 -0.224492E-05  0.162E-02    0.07       1.0  T
  53   -507.4911514 -0.539025E-05  0.155E-02    0.07       1.0  T
  54   -507.4911666 -0.151733E-04  0.144E-02    0.07       1.0  T
  55   -507.4911769 -0.102839E-04  0.132E-02    0.08       1.0  T
  56   -507.4911875 -0.106051E-04  0.115E-02    0.08       1.0  T
  57   -507.4912003 -0.128669E-04  0.102E-02    0.08       1.0  T
  58   -507.4912059 -0.559496E-05  0.901E-03    0.08       1.0  T
  59   -507.4912128 -0.682399E-05  0.696E-03    0.08       1.0  T
  60   -507.4912187 -0.593775E-05  0.379E-03    0.08       1.6  T
  61   -507.4912210 -0.226970E-05  0.248E-03    0.08       2.4  T
  62   -507.4912221 -0.111100E-05  0.157E-03    0.08       3.8  T
  63   -507.4912222 -0.969222E-07  0.127E-03    0.08       4.7  T
  64   -507.4912228 -0.657801E-06  0.542E-04    0.08      11.0  T
  65   -507.4912230 -0.113981E-06  0.245E-04    0.08      24.3  T

   *** convergence criteria satisfied after 65 iterations ***

         #    Occupation            Energy/Eh            Energy/eV
      -------------------------------------------------------------
         1        2.0000           -0.6840436             -18.6138
       ...           ...                  ...                  ...
       459        2.0000           -0.3540417              -9.6340
       460        2.0000           -0.3502951              -9.5320
       461        2.0000           -0.3500170              -9.5244
       462        2.0000           -0.3499841              -9.5236
       463        1.9999           -0.3456692              -9.4061
       464        1.9820           -0.3406740              -9.2702
       465        1.4886           -0.3372200              -9.1762 (HOMO)
       466        0.2683           -0.3344336              -9.1004 (LUMO)
       467        0.2610           -0.3344034              -9.0996
       468        0.0001           -0.3270841              -8.9004
       469        0.0000           -0.3219402              -8.7604
       470                         -0.3175176              -8.6401
       ...                                ...                  ...
       916                          2.2673243              61.6970
      -------------------------------------------------------------
                  HL-Gap            0.0027864 Eh            0.0758 eV
             Fermi-level           -0.3362051 Eh           -9.1486 eV

 SCC (total)                   0 d,  0 h,  0 min, 17.514 sec
 SCC setup                      ...        0 min,  0.014 sec (  0.082%)
 Dispersion                     ...        0 min,  0.031 sec (  0.175%)
 classical contributions        ...        0 min,  0.002 sec (  0.013%)
 integral evaluation            ...        0 min,  0.215 sec (  1.229%)
 iterations                     ...        0 min, 16.732 sec ( 95.535%)
 molecular gradient             ...        0 min,  0.485 sec (  2.768%)
 printout                       ...        0 min,  0.035 sec (  0.197%)

         :::::::::::::::::::::::::::::::::::::::::::::::::::::
         ::                     SUMMARY                     ::
         :::::::::::::::::::::::::::::::::::::::::::::::::::::
         :: total energy            -496.325432709084 Eh    ::
         :: gradient norm              2.225012026349 Eh/a0 ::
         :: HOMO-LUMO gap              0.075822531022 eV    ::
         ::.................................................::
         :: SCC energy              -507.491222954782 Eh    ::
         :: -> isotropic ES            0.480228543583 Eh    ::
         :: -> anisotropic ES          0.053033506396 Eh    ::
         :: -> anisotropic XC          0.343198181910 Eh    ::
         :: -> dispersion             -0.439596831442 Eh    ::
         :: repulsion energy          11.167099621233 Eh    ::
         :: add. restraining           0.000000000000 Eh    ::
         :: total charge              -0.000000000017 e     ::
         :::::::::::::::::::::::::::::::::::::::::::::::::::::

      ----------------------------------------------------------- 
     |                   =====================                   |
     |                        A N C O P T                        |
     |                   =====================                   |
     |               Approximate Normal Coordinate               |
     |                Rational Function Optimizer                |
      ----------------------------------------------------------- 

          ...................................................
          :                      SETUP                      :
          :.................................................:
          :   optimization level            normal          :
          :   max. optcycles                   849          :
          :   ANC micro-cycles                  20          :
          :   degrees of freedom               843          :
          :.................................................:
          :   RF solver                   davidson          :
          :   write xtbopt.log                true          :
          :   linear?                        false          :
          :   energy convergence         0.5000000E-05 Eh   :
          :   grad. convergence          0.1000000E-02 Eh/α :
          :   maximium RF displ.         1.0000000          :
          :   Hlow (freq-cutoff)         0.1000000E-01      :
          :   Hmax (freq-cutoff)         5.0000000          :
          :   S6 in model hess.         20.0000000          :
          ...................................................

generating ANC from model Hessian ...
Using Lindh-Hessian (1995)
 Shifting diagonal of input Hessian by    1.0134368291478421E-002
 Lowest  eigenvalues of input Hessian
    0.010000    0.010034    0.010099    0.010100    0.010100    0.010100
    0.010101    0.010105    0.010109    0.010113    0.010115    0.010119
    0.010120    0.010121    0.010126    0.010126    0.010127    0.010130
 Highest eigenvalues
    3.327668    3.495154    3.495768    3.495768    3.495768    3.495772


........................................................................
.............................. CYCLE    1 ..............................
........................................................................
   1   -507.4912230 -0.507491E+03  0.242E-04    0.08       0.0  T
   2   -507.4912224  0.514253E-06  0.727E-04    0.08       8.2  T
   3   -507.4912229 -0.413515E-06  0.355E-04    0.08      16.8  T
     SCC iter.                  ...        0 min,  0.786 sec
     gradient                   ...        0 min,  0.485 sec
 * total energy  :  -496.3254326 Eh     change        0.9558602E-07 Eh
   gradient norm :     2.2250090 Eh/α   predicted     0.0000000E+00 (-100.00%)
   displ. norm   :     0.6554605 α      lambda       -0.1381313E+01
   maximum displ.:     0.2448470 α      in ANC's #669, #826, #840, ...

........................................................................
.............................. CYCLE    2 ..............................
........................................................................
   1   -507.5412261 -0.507541E+03  0.368E-01    0.14       0.0  T
   2   -506.3274479  0.121378E+01  0.115E+00    0.14       1.0  T
   3   -507.4961473 -0.116870E+01  0.399E-01    0.35       1.0  T
   4   -507.5488070 -0.526597E-01  0.270E-01    0.12       1.0  T
   5   -507.2571768  0.291630E+00  0.726E-01    0.04       1.0  T
   6   -507.1429967  0.114180E+00  0.623E-01    0.09       1.0  T
   7   -507.0236718  0.119325E+00  0.678E-01    0.11       1.0  T
   8   -507.5143677 -0.490696E+00  0.330E-01    0.14       1.0  T
   9   -507.5495405 -0.351728E-01  0.241E-01    0.16       1.0  T
  10   -507.5680895 -0.185490E-01  0.136E-01    0.14       1.0  T
  11   -507.5766377 -0.854823E-02  0.774E-02    0.12       1.0  T
  12   -507.5806056 -0.396787E-02  0.395E-02    0.10       1.0  T
  13   -507.5812389 -0.633344E-03  0.325E-02    0.09       1.0  T
  14   -507.5817138 -0.474841E-03  0.226E-02    0.09       1.0  T
  15   -507.5819494 -0.235662E-03  0.185E-02    0.08       1.0  T
  16   -507.5820244 -0.749781E-04  0.124E-02    0.08       1.0  T
  17   -507.5820356 -0.112281E-04  0.112E-02    0.08       1.0  T
  18   -507.5820754 -0.397700E-04  0.899E-03    0.08       1.0  T
  19   -507.5821404 -0.650277E-04  0.351E-03    0.08       1.7  T
  20   -507.5821511 -0.106397E-04  0.132E-03    0.08       4.5  T
  21   -507.5821507  0.342906E-06  0.124E-03    0.08       4.8  T
  22   -507.5821515 -0.774982E-06  0.737E-04    0.08       8.1  T
  23   -507.5821520 -0.517544E-06  0.288E-04    0.08      20.6  T
     SCC iter.                  ...        0 min,  5.926 sec
     gradient                   ...        0 min,  0.485 sec
 * total energy  :  -497.2874507 Eh     change       -0.9620181E+00 Eh
   gradient norm :     0.9718949 Eh/α   predicted    -0.9873919E+00 (   2.64%)
   displ. norm   :     0.6165781 α      lambda       -0.5360320E+00
   maximum displ.:     0.2062977 α      in ANC's #669, #294, #804, ...

........................................................................
.............................. CYCLE    3 ..............................
........................................................................
   1   -507.5740150 -0.507574E+03  0.328E-01    0.06       0.0  T
   2   -507.5198103  0.542048E-01  0.378E-01    0.04       1.0  T
   3   -506.6231816  0.896629E+00  0.914E-01    0.00       1.0  T
   4   -507.5094823 -0.886301E+00  0.382E-01    0.13       1.0  T
   5   -507.1582225  0.351260E+00  0.627E-01    0.07       1.0  T
   6   -507.5411991 -0.382977E+00  0.285E-01    0.22       1.0  T
   7   -507.5350937  0.610536E-02  0.311E-01    0.09       1.0  T
   8   -507.5440080 -0.891428E-02  0.287E-01    0.11       1.0  T
   9   -507.5656567 -0.216487E-01  0.190E-01    0.16       1.0  T
  10   -507.5667505 -0.109376E-02  0.162E-01    0.05       1.0  T
  11   -507.5848981 -0.181476E-01  0.102E-01    0.11       1.0  T
  12   -507.5900902 -0.519216E-02  0.712E-02    0.09       1.0  T
  13   -507.5910766 -0.986353E-03  0.618E-02    0.09       1.0  T
  14   -507.5893226  0.175393E-02  0.651E-02    0.07       1.0  T
  15   -507.5928442 -0.352156E-02  0.420E-02    0.08       1.0  T
  16   -507.5938982 -0.105401E-02  0.227E-02    0.07       1.0  T
  17   -507.5940274 -0.129184E-03  0.207E-02    0.06       1.0  T
  18   -507.5942909 -0.263495E-03  0.135E-02    0.07       1.0  T
  19   -507.5942082  0.826978E-04  0.147E-02    0.06       1.0  T
  20   -507.5944347 -0.226518E-03  0.666E-03    0.07       1.0  T
  21   -507.5944594 -0.247249E-04  0.392E-03    0.07       1.5  T
  22   -507.5944662 -0.671545E-05  0.198E-03    0.07       3.0  T
  23   -507.5944639  0.226646E-05  0.199E-03    0.07       3.0  T
  24   -507.5944657 -0.183836E-05  0.154E-03    0.07       3.9  T
  25   -507.5944687 -0.297008E-05  0.249E-04    0.07      23.9  T
  26   -507.5944685  0.223329E-06  0.479E-04    0.07      12.4  T
  27   -507.5944687 -0.268999E-06  0.916E-05    0.07      64.9  T
     SCC iter.                  ...        0 min,  6.893 sec
     gradient                   ...        0 min,  0.485 sec
 * total energy  :  -497.6978645 Eh     change       -0.4104137E+00 Eh
   gradient norm :     0.4975163 Eh/α   predicted    -0.3699074E+00 (  -9.87%)
   displ. norm   :     0.6698198 α      lambda       -0.2791590E+00
   maximum displ.:     0.2231255 α      in ANC's #294, #290, #669, ...

........................................................................
.............................. CYCLE    4 ..............................
........................................................................
   1   -507.6760037 -0.507676E+03  0.296E-01    0.07       0.0  T
   2   -507.0880531  0.587951E+00  0.847E-01    0.09       1.0  T
   3   -507.5814858 -0.493433E+00  0.371E-01    0.32       1.0  T
   4   -507.5659553  0.155305E-01  0.509E-01    0.10       1.0  T
   5   -507.6771307 -0.111175E+00  0.145E-01    0.08       1.0  T
   6   -507.0480629  0.629068E+00  0.695E-01    0.18       1.0  T
   7   -507.5512925 -0.503230E+00  0.319E-01    0.03       1.0  T
   8   -507.6442951 -0.930026E-01  0.254E-01    0.03       1.0  T
   9   -507.6575397 -0.132447E-01  0.161E-01    0.04       1.0  T
  10   -507.6841347 -0.265949E-01  0.893E-02    0.07       1.0  T
  11   -507.6878345 -0.369984E-02  0.558E-02    0.05       1.0  T
  12   -507.6889669 -0.113241E-02  0.422E-02    0.06       1.0  T
  13   -507.6894059 -0.438999E-03  0.394E-02    0.06       1.0  T
  14   -507.6895415 -0.135597E-03  0.351E-02    0.06       1.0  T
  15   -507.6908536 -0.131214E-02  0.966E-03    0.06       1.0  T
  16   -507.6908535  0.158867E-06  0.908E-03    0.05       1.0  T
  17   -507.6908748 -0.213269E-04  0.759E-03    0.06       1.0  T
  18   -507.6909262 -0.514377E-04  0.208E-03    0.06       2.9  T
  19   -507.6909268 -0.581916E-06  0.161E-03    0.06       3.7  T
  20   -507.6909279 -0.103617E-05  0.125E-03    0.06       4.8  T
  21   -507.6909293 -0.142704E-05  0.561E-04    0.06      10.6  T
  22   -507.6909295 -0.227709E-06  0.224E-04    0.06      26.5  T
  23   -507.6909295 -0.246466E-07  0.129E-04    0.06      46.0  T
     SCC iter.                  ...        0 min,  5.945 sec
     gradient                   ...        0 min,  0.486 sec
 * total energy  :  -497.9085659 Eh     change       -0.2107014E+00 Eh
   gradient norm :     0.2245665 Eh/α   predicted    -0.2022033E+00 (  -4.03%)
   displ. norm   :     0.7571248 α      lambda       -0.1482477E+00
   maximum displ.:     0.2932555 α      in ANC's #294, #290, #323, ...

........................................................................
.............................. CYCLE    5 ..............................
........................................................................
   1   -507.7816573 -0.507782E+03  0.287E-01    0.10       0.0  T
   2   -507.0044861  0.777171E+00  0.988E-01    0.18       1.0  T
   3   -507.4613465 -0.456860E+00  0.716E-01    0.23       1.0  T
   4   -507.7164388 -0.255092E+00  0.428E-01    0.12       1.0  T
   5   -507.7743925 -0.579537E-01  0.209E-01    0.09       1.0  T
   6   -507.5408008  0.233592E+00  0.566E-01    0.04       1.0  T
   7   -507.4462172  0.945836E-01  0.511E-01    0.06       1.0  T
   8   -507.7737718 -0.327555E+00  0.137E-01    0.05       1.0  T
   9   -507.7952849 -0.215131E-01  0.633E-02    0.06       1.0  T
  10   -507.7979005 -0.261563E-02  0.363E-02    0.06       1.0  T
  11   -507.7988443 -0.943712E-03  0.232E-02    0.05       1.0  T
  12   -507.7988119  0.323358E-04  0.217E-02    0.06       1.0  T
  13   -507.7980823  0.729615E-03  0.335E-02    0.05       1.0  T
  14   -507.7991018 -0.101947E-02  0.692E-03    0.06       1.0  T
  15   -507.7991130 -0.112241E-04  0.613E-03    0.06       1.0  T
  16   -507.7991209 -0.788802E-05  0.426E-03    0.06       1.4  T
  17   -507.7991292 -0.826878E-05  0.270E-03    0.06       2.2  T
  18   -507.7991299 -0.789596E-06  0.186E-03    0.06       3.2  T
  19   -507.7991320 -0.205644E-05  0.106E-03    0.06       5.6  T
  20   -507.7991324 -0.401315E-06  0.790E-04    0.06       7.5  T
  21   -507.7991326 -0.177372E-06  0.507E-04    0.06      11.7  T
     SCC iter.                  ...        0 min,  5.370 sec
     gradient                   ...        0 min,  0.486 sec
 * total energy  :  -498.0307209 Eh     change       -0.1221550E+00 Eh
   gradient norm :     0.1374914 Eh/α   predicted    -0.1166145E+00 (  -4.54%)
   displ. norm   :     0.8087458 α      lambda       -0.1034083E+00
   maximum displ.:     0.3075532 α      in ANC's #294, #290, #162, ...

........................................................................
.............................. CYCLE    6 ..............................
........................................................................
   1   -507.8623386 -0.507862E+03  0.287E-01    0.12       0.0  T
   2   -507.0619982  0.800340E+00  0.102E+00    0.18       1.0  T
   3   -507.5259523 -0.463954E+00  0.756E-01    0.23       1.0  T
   4   -507.8235263 -0.297574E+00  0.350E-01    0.13       1.0  T
   5   -507.8467831 -0.232568E-01  0.182E-01    0.07       1.0  T
   6   -507.0968712  0.749912E+00  0.791E-01    0.17       1.0  T
   7   -507.8448266 -0.747955E+00  0.235E-01    0.05       1.0  T
   8   -507.8699502 -0.251236E-01  0.124E-01    0.08       1.0  T
   9   -507.8797698 -0.981963E-02  0.297E-02    0.06       1.0  T
  10   -507.8790695  0.700302E-03  0.382E-02    0.06       1.0  T
  11   -507.8798173 -0.747831E-03  0.338E-02    0.07       1.0  T
  12   -507.8791284  0.688909E-03  0.475E-02    0.06       1.0  T
  13   -507.8801763 -0.104783E-02  0.162E-02    0.07       1.0  T
  14   -507.8801874 -0.110872E-04  0.122E-02    0.07       1.0  T
  15   -507.8803583 -0.170995E-03  0.448E-03    0.07       1.3  T
  16   -507.8803469  0.114960E-04  0.563E-03    0.07       1.1  T
  17   -507.8803615 -0.146714E-04  0.432E-03    0.07       1.4  T
  18   -507.8803697 -0.817432E-05  0.247E-03    0.07       2.4  T
  19   -507.8803713 -0.163325E-05  0.160E-03    0.07       3.7  T
  20   -507.8803718 -0.472215E-06  0.121E-03    0.07       4.9  T
  21   -507.8803726 -0.758544E-06  0.696E-04    0.07       8.5  T
  22   -507.8803727 -0.186452E-06  0.393E-04    0.07      15.1  T
     SCC iter.                  ...        0 min,  5.630 sec
     gradient                   ...        0 min,  0.486 sec
 * total energy  :  -498.1190402 Eh     change       -0.8831938E-01 Eh
   gradient norm :     0.1037518 Eh/α   predicted    -0.8552231E-01 (  -3.17%)
   displ. norm   :     0.8258135 α      lambda       -0.7643806E-01
   maximum displ.:     0.2836845 α      in ANC's #294, #162, #290, ...

........................................................................
.............................. CYCLE    7 ..............................
........................................................................
   1   -507.9266348 -0.507927E+03  0.264E-01    0.12       0.0  T
   2   -507.0905585  0.836076E+00  0.101E+00    0.17       1.0  T
   3   -507.7825807 -0.692022E+00  0.499E-01    0.21       1.0  T
   4   -507.8633902 -0.808094E-01  0.399E-01    0.17       1.0  T
   5   -507.9023559 -0.389657E-01  0.178E-01    0.06       1.0  T
   6   -507.4538116  0.448544E+00  0.605E-01    0.09       1.0  T
   7   -507.9181370 -0.464325E+00  0.178E-01    0.13       1.0  T
   8   -507.9319743 -0.138373E-01  0.970E-02    0.10       1.0  T
   9   -507.9358891 -0.391478E-02  0.639E-02    0.09       1.0  T
  10   -507.9365354 -0.646245E-03  0.518E-02    0.09       1.0  T
  11   -507.9370919 -0.556553E-03  0.474E-02    0.09       1.0  T
  12   -507.9376441 -0.552235E-03  0.391E-02    0.09       1.0  T
  13   -507.9385352 -0.891038E-03  0.196E-02    0.08       1.0  T
  14   -507.9387344 -0.199175E-03  0.110E-02    0.08       1.0  T
  15   -507.9387994 -0.650005E-04  0.759E-03    0.08       1.0  T
  16   -507.9387944  0.492269E-05  0.776E-03    0.08       1.0  T
  17   -507.9388309 -0.364685E-04  0.386E-03    0.08       1.5  T
  18   -507.9388352 -0.428047E-05  0.293E-03    0.08       2.0  T
  19   -507.9388353 -0.146277E-06  0.283E-03    0.08       2.1  T
  20   -507.9388382 -0.283321E-05  0.192E-03    0.08       3.1  T
  21   -507.9388403 -0.217347E-05  0.859E-04    0.08       6.9  T
  22   -507.9388408 -0.480120E-06  0.395E-04    0.08      15.0  T
  23   -507.9388409 -0.893734E-07  0.241E-04    0.08      24.7  T
     SCC iter.                  ...        0 min,  5.930 sec
     gradient                   ...        0 min,  0.487 sec
 * total energy  :  -498.1849140 Eh     change       -0.6587379E-01 Eh
   gradient norm :     0.0796095 Eh/α   predicted    -0.6428320E-01 (  -2.41%)
   displ. norm   :     0.8356676 α      lambda       -0.5695658E-01
   maximum displ.:     0.2848133 α      in ANC's #162, #294, #150, ...

........................................................................
.............................. CYCLE    8 ..............................
........................................................................
   1   -507.9733755 -0.507973E+03  0.241E-01    0.13       0.0  T
   2   -507.0898904  0.883485E+00  0.995E-01    0.15       1.0  T
   3   -507.9475174 -0.857627E+00  0.222E-01    0.20       1.0  T
   4   -507.8695999  0.779175E-01  0.435E-01    0.08       1.0  T
   5   -507.9603890 -0.907891E-01  0.171E-01    0.16       1.0  T
   6   -507.9478122  0.125767E-01  0.246E-01    0.15       1.0  T
   7   -507.9645884 -0.167762E-01  0.134E-01    0.14       1.0  T
   8   -507.9692923 -0.470384E-02  0.111E-01    0.11       1.0  T
   9   -507.9741786 -0.488634E-02  0.834E-02    0.13       1.0  T
  10   -507.9750838 -0.905203E-03  0.778E-02    0.13       1.0  T
  11   -507.9752590 -0.175223E-03  0.759E-02    0.12       1.0  T
  12   -507.9781644 -0.290532E-02  0.489E-02    0.11       1.0  T
  13   -507.9799448 -0.178047E-02  0.210E-02    0.09       1.0  T
  14   -507.9803318 -0.387018E-03  0.844E-03    0.09       1.0  T
  15   -507.9803035  0.283350E-04  0.817E-03    0.09       1.0  T
  16   -507.9803722 -0.686545E-04  0.279E-03    0.09       2.1  T
  17   -507.9803688  0.338596E-05  0.259E-03    0.09       2.3  T
  18   -507.9803747 -0.595901E-05  0.854E-04    0.09       7.0  T
  19   -507.9803751 -0.377285E-06  0.608E-04    0.09       9.8  T
  20   -507.9803753 -0.153834E-06  0.377E-04    0.09      15.8  T
     SCC iter.                  ...        0 min,  5.156 sec
     gradient                   ...        0 min,  0.486 sec
 * total energy  :  -498.2344526 Eh     change       -0.4953860E-01 Eh
   gradient norm :     0.0601571 Eh/α   predicted    -0.4836585E-01 (  -2.37%)
   displ. norm   :     0.8499918 α      lambda       -0.4348633E-01
   maximum displ.:     0.2901215 α      in ANC's #162, #58, #150, ...

........................................................................
.............................. CYCLE    9 ..............................
........................................................................
   1   -507.9988355 -0.507999E+03  0.231E-01    0.14       0.0  T
   2   -507.1011954  0.897640E+00  0.965E-01    0.12       1.0  T
   3   -507.9527279 -0.851533E+00  0.333E-01    0.24       1.0  T
   4   -507.7282552  0.224473E+00  0.722E-01    0.26       1.0  T
   5   -507.9703382 -0.242083E+00  0.231E-01    0.13       1.0  T
   6   -507.9587775  0.115606E-01  0.289E-01    0.27       1.0  T
   7   -507.9762920 -0.175144E-01  0.214E-01    0.21       1.0  T
   8   -507.9829176 -0.662565E-02  0.182E-01    0.21       1.0  T
   9   -507.9924231 -0.950551E-02  0.124E-01    0.18       1.0  T
  10   -507.9938601 -0.143702E-02  0.113E-01    0.17       1.0  T
  11   -507.9943764 -0.516253E-03  0.110E-01    0.17       1.0  T
  12   -507.9988932 -0.451681E-02  0.809E-02    0.14       1.0  T
  13   -508.0019425 -0.304926E-02  0.561E-02    0.13       1.0  T
  14   -508.0038021 -0.185962E-02  0.293E-02    0.11       1.0  T
  15   -508.0037331  0.689683E-04  0.303E-02    0.11       1.0  T
  16   -508.0038073 -0.742374E-04  0.284E-02    0.11       1.0  T
  17   -508.0041600 -0.352686E-03  0.142E-02    0.10       1.0  T
  18   -508.0043069 -0.146860E-03  0.621E-03    0.10       1.0  T
  19   -508.0043056  0.131251E-05  0.641E-03    0.10       1.0  T
  20   -508.0043217 -0.161184E-04  0.492E-03    0.10       1.2  T
  21   -508.0043421 -0.204307E-04  0.201E-03    0.10       3.0  T
  22   -508.0043455 -0.340204E-05  0.418E-04    0.10      14.2  T
  23   -508.0043456 -0.348308E-07  0.220E-04    0.10      27.0  T
  24   -508.0043455  0.103175E-06  0.381E-04    0.10      15.6  T
     SCC iter.                  ...        0 min,  6.115 sec
     gradient                   ...        0 min,  0.487 sec
 * total energy  :  -498.2728716 Eh     change       -0.3841898E-01 Eh
   gradient norm :     0.0471574 Eh/α   predicted    -0.3745231E-01 (  -2.52%)
   displ. norm   :     0.8707139 α      lambda       -0.3474779E-01
   maximum displ.:     0.2724756 α      in ANC's #58, #162, #53, ...

........................................................................
.............................. CYCLE   10 ..............................
........................................................................
   1   -508.0082746 -0.508008E+03  0.230E-01    0.16       0.0  T
   2   -507.0878725  0.920402E+00  0.949E-01    0.09       1.0  T
   3   -507.9386647 -0.850792E+00  0.416E-01    0.28       1.0  T
   4   -507.9002796  0.383851E-01  0.470E-01    0.25       1.0  T
   5   -507.9627938 -0.625142E-01  0.311E-01    0.18       1.0  T
   6   -507.9892176 -0.264238E-01  0.228E-01    0.23       1.0  T
   7   -507.9937508 -0.453312E-02  0.188E-01    0.27       1.0  T
   8   -508.0015913 -0.784058E-02  0.145E-01    0.18       1.0  T
   9   -508.0056912 -0.409989E-02  0.113E-01    0.19       1.0  T
  10   -508.0066999 -0.100863E-02  0.103E-01    0.18       1.0  T
  11   -508.0075670 -0.867160E-03  0.975E-02    0.18       1.0  T
  12   -508.0110878 -0.352083E-02  0.686E-02    0.15       1.0  T
  13   -508.0140534 -0.296556E-02  0.314E-02    0.13       1.0  T
  14   -508.0140876 -0.341588E-04  0.316E-02    0.13       1.0  T
  15   -508.0139612  0.126322E-03  0.334E-02    0.13       1.0  T
  16   -508.0142425 -0.281209E-03  0.253E-02    0.13       1.0  T
  17   -508.0145708 -0.328329E-03  0.102E-02    0.12       1.0  T
  18   -508.0146399 -0.691185E-04  0.465E-03    0.11       1.3  T
  19   -508.0146469 -0.697291E-05  0.283E-03    0.11       2.1  T
  20   -508.0146501 -0.324676E-05  0.195E-03    0.11       3.1  T
  21   -508.0146510 -0.880060E-06  0.135E-03    0.11       4.4  T
  22   -508.0146530 -0.196345E-05  0.462E-04    0.11      12.9  T
  23   -508.0146531 -0.145159E-06  0.248E-04    0.11      23.9  T
  24   -508.0146531 -0.266476E-07  0.126E-04    0.12      47.1  T
     SCC iter.                  ...        0 min,  6.122 sec
     gradient                   ...        0 min,  0.487 sec
 * total energy  :  -498.3042344 Eh     change       -0.3136283E-01 Eh
   gradient norm :     0.0391378 Eh/α   predicted    -0.3054582E-01 (  -2.61%)
   displ. norm   :     0.8991725 α      lambda       -0.2950900E-01
   maximum displ.:     0.3151498 α      in ANC's #58, #37, #53, ...

........................................................................
.............................. CYCLE   11 ..............................
........................................................................
   1   -508.0107929 -0.508011E+03  0.226E-01    0.19       0.0  T
   2   -507.0318594  0.978934E+00  0.957E-01    0.08       1.0  T
   3   -507.9473497 -0.915490E+00  0.407E-01    0.31       1.0  T
   4   -507.9529493 -0.559953E-02  0.362E-01    0.26       1.0  T
   5   -507.9644338 -0.114845E-01  0.329E-01    0.23       1.0  T
   6   -508.0026205 -0.381867E-01  0.174E-01    0.25       1.0  T
   7   -508.0067333 -0.411275E-02  0.133E-01    0.26       1.0  T
   8   -508.0110351 -0.430183E-02  0.102E-01    0.20       1.0  T
   9   -508.0124448 -0.140972E-02  0.867E-02    0.21       1.0  T
  10   -508.0127973 -0.352483E-03  0.819E-02    0.20       1.0  T
  11   -508.0133825 -0.585154E-03  0.773E-02    0.20       1.0  T
  12   -508.0153163 -0.193383E-02  0.576E-02    0.18       1.0  T
  13   -508.0173678 -0.205152E-02  0.286E-02    0.15       1.0  T
  14   -508.0172464  0.121377E-03  0.296E-02    0.15       1.0  T
  15   -508.0175992 -0.352818E-03  0.220E-02    0.15       1.0  T
  16   -508.0175951  0.414002E-05  0.209E-02    0.14       1.0  T
  17   -508.0178302 -0.235154E-03  0.112E-02    0.14       1.0  T
  18   -508.0179019 -0.716424E-04  0.426E-03    0.13       1.4  T
  19   -508.0179223 -0.203895E-04  0.111E-03    0.13       5.4  T
  20   -508.0179220  0.277771E-06  0.101E-03    0.13       5.9  T
  21   -508.0179225 -0.532649E-06  0.554E-04    0.13      10.7  T
  22   -508.0179228 -0.273995E-06  0.273E-04    0.13      21.8  T
     SCC iter.                  ...        0 min,  5.667 sec
     gradient                   ...        0 min,  0.486 sec
 * total energy  :  -498.3316951 Eh     change       -0.2746063E-01 Eh
   gradient norm :     0.0344686 Eh/α   predicted    -0.2668371E-01 (  -2.83%)
   displ. norm   :     0.9366109 α      lambda       -0.2725895E-01
   maximum displ.:     0.3502529 α      in ANC's #37, #58, #53, ...

........................................................................
.............................. CYCLE   12 ..............................
........................................................................
   1   -508.0107516 -0.508011E+03  0.224E-01    0.24       0.0  T
   2   -507.3225590  0.688193E+00  0.789E-01    0.02       1.0  T
   3   -507.9717410 -0.649182E+00  0.329E-01    0.37       1.0  T
   4   -507.9700219  0.171902E-02  0.317E-01    0.33       1.0  T
   5   -507.9796138 -0.959190E-02  0.285E-01    0.35       1.0  T
   6   -508.0059565 -0.263427E-01  0.147E-01    0.40       1.0  T
   7   -508.0095346 -0.357810E-02  0.113E-01    0.35       1.0  T
   8   -508.0120277 -0.249303E-02  0.890E-02    0.33       1.0  T
   9   -508.0135851 -0.155741E-02  0.708E-02    0.30       1.0  T
  10   -508.0137519 -0.166773E-03  0.684E-02    0.29       1.0  T
  11   -508.0146101 -0.858256E-03  0.606E-02    0.26       1.0  T
  12   -508.0169510 -0.234087E-02  0.247E-02    0.18       1.0  T
  13   -508.0173463 -0.395351E-03  0.115E-02    0.16       1.0  T
  14   -508.0173479 -0.155520E-05  0.100E-02    0.16       1.0  T
  15   -508.0173158  0.321115E-04  0.126E-02    0.17       1.0  T
  16   -508.0173181 -0.229197E-05  0.988E-03    0.15       1.0  T
  17   -508.0174140 -0.959734E-04  0.320E-03    0.16       1.9  T
  18   -508.0174163 -0.229778E-05  0.221E-03    0.15       2.7  T
  19   -508.0174203 -0.393550E-05  0.940E-04    0.16       6.3  T
  20   -508.0174211 -0.782004E-06  0.294E-04    0.16      20.2  T
  21   -508.0174211 -0.745271E-07  0.938E-05    0.16      63.4  T
     SCC iter.                  ...        0 min,  5.341 sec
     gradient                   ...        0 min,  0.487 sec
 * total energy  :  -498.3582376 Eh     change       -0.2654251E-01 Eh
   gradient norm :     0.0337334 Eh/α   predicted    -0.2558581E-01 (  -3.60%)
   displ. norm   :     0.9777718 α      lambda       -0.2811481E-01
   maximum displ.:     0.3972844 α      in ANC's #37, #58, #53, ...

........................................................................
.............................. CYCLE   13 ..............................
........................................................................
   1   -508.0088670 -0.508009E+03  0.234E-01    0.31       0.0  T
   2   -507.8272444  0.181623E+00  0.442E-01    0.02       1.0  T
   3   -507.9893161 -0.162072E+00  0.224E-01    0.28       1.0  T
   4   -507.9875908  0.172532E-02  0.243E-01    0.37       1.0  T
   5   -507.9878488 -0.257954E-03  0.245E-01    0.39       1.0  T
   6   -508.0058036 -0.179548E-01  0.115E-01    0.27       1.0  T
   7   -508.0094486 -0.364499E-02  0.967E-02    0.28       1.0  T
   8   -508.0110581 -0.160945E-02  0.747E-02    0.31       1.0  T
   9   -508.0125739 -0.151584E-02  0.522E-02    0.30       1.0  T
  10   -508.0130533 -0.479397E-03  0.410E-02    0.31       1.0  T
  11   -508.0137158 -0.662445E-03  0.274E-02    0.29       1.0  T
  12   -508.0143004 -0.584652E-03  0.492E-03    0.20       1.2  T
  13   -508.0142979  0.254340E-05  0.473E-03    0.21       1.3  T
  14   -508.0143056 -0.777205E-05  0.283E-03    0.21       2.1  T
  15   -508.0143006  0.500718E-05  0.291E-03    0.20       2.0  T
  16   -508.0143038 -0.317374E-05  0.237E-03    0.21       2.5  T
  17   -508.0143081 -0.428425E-05  0.958E-04    0.20       6.2  T
  18   -508.0143090 -0.956008E-06  0.185E-04    0.20      32.1  T
  19   -508.0143090  0.465803E-08  0.149E-04    0.20      40.0  T
     SCC iter.                  ...        0 min,  4.836 sec
     gradient                   ...        0 min,  0.486 sec
 * total energy  :  -498.3870300 Eh     change       -0.2879246E-01 Eh
   gradient norm :     0.0378149 Eh/α   predicted    -0.2749684E-01 (  -4.50%)
   displ. norm   :     0.9665383 α      lambda       -0.3004039E-01
   maximum displ.:     0.4123341 α      in ANC's #37, #58, #53, ...

........................................................................
.............................. CYCLE   14 ..............................
........................................................................
   1   -507.9929288 -0.507993E+03  0.231E-01    0.42       0.0  T
   2   -507.9753031  0.176257E-01  0.240E-01    0.22       1.0  T
   3   -507.9729355  0.236759E-02  0.252E-01    0.41       1.0  T
   4   -507.9815413 -0.860581E-02  0.180E-01    0.46       1.0  T
   5   -507.9955202 -0.139789E-01  0.413E-02    0.35       1.0  T
   6   -507.9957930 -0.272801E-03  0.275E-02    0.30       1.0  T
   7   -507.9961256 -0.332542E-03  0.623E-03    0.32       1.0  T
   8   -507.9961312 -0.565744E-05  0.434E-03    0.32       1.4  T
   9   -507.9961297  0.156175E-05  0.366E-03    0.32       1.6  T
  10   -507.9961334 -0.373806E-05  0.198E-03    0.32       3.0  T
  11   -507.9961346 -0.120180E-05  0.872E-04    0.32       6.8  T
  12   -507.9961348 -0.206214E-06  0.358E-04    0.32      16.6  T
  13   -507.9961348 -0.262636E-07  0.194E-04    0.32      30.6  T
     SCC iter.                  ...        0 min,  3.344 sec
     gradient                   ...        0 min,  0.486 sec
 * total energy  :  -498.4188187 Eh     change       -0.3178871E-01 Eh
   gradient norm :     0.0496585 Eh/α   predicted    -0.2905201E-01 (  -8.61%)
   displ. norm   :     0.9370885 α      lambda       -0.3426130E-01
   maximum displ.:     0.4165905 α      in ANC's #37, #26, #58, ...

........................................................................
.............................. CYCLE   15 ..............................
........................................................................
   1   -507.9767224 -0.507977E+03  0.227E-01    0.62       0.0  T
   2   -507.9698441  0.687832E-02  0.185E-01    0.52       1.0  T
   3   -507.9608078  0.903625E-02  0.229E-01    0.64       1.0  T
   4   -507.9742015 -0.133937E-01  0.106E-01    0.65       1.0  T
   5   -507.9785735 -0.437193E-02  0.320E-02    0.60       1.0  T
   6   -507.9788735 -0.299978E-03  0.818E-03    0.59       1.0  T
   7   -507.9788918 -0.183885E-04  0.479E-03    0.60       1.2  T
   8   -507.9788966 -0.479774E-05  0.238E-03    0.60       2.5  T
   9   -507.9788970 -0.368905E-06  0.154E-03    0.60       3.9  T
  10   -507.9788980 -0.966096E-06  0.469E-04    0.60      12.7  T
  11   -507.9788980 -0.395521E-07  0.320E-04    0.60      18.6  T
     SCC iter.                  ...        0 min,  2.808 sec
     gradient                   ...        0 min,  0.487 sec
 * total energy  :  -498.4558352 Eh     change       -0.3701649E-01 Eh
   gradient norm :     0.0638590 Eh/α   predicted    -0.3217367E-01 ( -13.08%)
   displ. norm   :     0.9065212 α      lambda       -0.4048879E-01
   maximum displ.:     0.4125832 α      in ANC's #37, #26, #58, ...

........................................................................
.............................. CYCLE   16 ..............................
........................................................................
   1   -507.9627303 -0.507963E+03  0.215E-01    0.96       0.0  T
   2   -507.9597792  0.295115E-02  0.157E-01    0.92       1.0  T
   3   -507.9529676  0.681154E-02  0.188E-01    0.98       1.0  T
   4   -507.9632366 -0.102690E-01  0.536E-02    0.98       1.0  T
   5   -507.9639856 -0.749054E-03  0.304E-02    0.98       1.0  T
   6   -507.9643166 -0.330924E-03  0.516E-03    0.98       1.2  T
   7   -507.9643212 -0.465336E-05  0.336E-03    0.98       1.8  T
   8   -507.9643240 -0.272690E-05  0.200E-03    0.98       3.0  T
   9   -507.9643249 -0.961459E-06  0.923E-04    0.98       6.4  T
  10   -507.9643251 -0.211799E-06  0.378E-04    0.98      15.7  T
     SCC iter.                  ...        0 min,  2.553 sec
     gradient                   ...        0 min,  0.486 sec
 * total energy  :  -498.4989837 Eh     change       -0.4314849E-01 Eh
   gradient norm :     0.0760053 Eh/α   predicted    -0.3688084E-01 ( -14.53%)
   displ. norm   :     0.8858026 α      lambda       -0.4661609E-01
   maximum displ.:     0.4119250 α      in ANC's #37, #26, #74, ...

........................................................................
.............................. CYCLE   17 ..............................
........................................................................
   1   -507.9539036 -0.507954E+03  0.195E-01    0.99       0.0  T
   2   -507.9524279  0.147572E-02  0.140E-01    0.99       1.0  T
   3   -507.9480767  0.435118E-02  0.151E-01    0.99       1.0  T
   4   -507.9548452 -0.676851E-02  0.260E-02    1.00       1.0  T
   5   -507.9549706 -0.125363E-03  0.158E-02    1.00       1.0  T
   6   -507.9550526 -0.819568E-04  0.428E-03    1.00       1.4  T
   7   -507.9550546 -0.208753E-05  0.294E-03    1.00       2.0  T
   8   -507.9550563 -0.164099E-05  0.163E-03    1.00       3.7  T
   9   -507.9550571 -0.868411E-06  0.678E-04    0.99       8.8  T
  10   -507.9550573 -0.102718E-06  0.292E-04    0.99      20.4  T
     SCC iter.                  ...        0 min,  2.578 sec
     gradient                   ...        0 min,  0.486 sec
 * total energy  :  -498.5464310 Eh     change       -0.4744728E-01 Eh
   gradient norm :     0.0779402 Eh/α   predicted    -0.4159680E-01 ( -12.33%)
   displ. norm   :     0.9657707 α      lambda       -0.6145153E-01
   maximum displ.:     0.4082865 α      in ANC's #37, #26, #99, ...

........................................................................
.............................. CYCLE   18 ..............................
........................................................................
   1   -507.9812418 -0.507981E+03  0.241E-01    0.97       0.0  T
   2   -507.9780337  0.320815E-02  0.200E-01    0.98       1.0  T
   3   -507.9782263 -0.192645E-03  0.145E-01    0.98       1.0  T
   4   -507.9830445 -0.481824E-02  0.474E-02    0.98       1.0  T
   5   -507.9837962 -0.751616E-03  0.162E-02    0.98       1.0  T
   6   -507.9838870 -0.908969E-04  0.807E-03    0.98       1.0  T
   7   -507.9839055 -0.184565E-04  0.370E-03    0.98       1.6  T
   8   -507.9839072 -0.168605E-05  0.207E-03    0.98       2.9  T
   9   -507.9839081 -0.917668E-06  0.945E-04    0.98       6.3  T
  10   -507.9839084 -0.287561E-06  0.392E-04    0.98      15.1  T
     SCC iter.                  ...        0 min,  2.581 sec
     gradient                   ...        0 min,  0.485 sec
 * total energy  :  -498.5851739 Eh     change       -0.3874296E-01 Eh
   gradient norm :     0.1387258 Eh/α   predicted    -0.5938416E-01 (  53.28%)
   displ. norm   :     0.7445726 α      lambda       -0.3292533E-01
   maximum displ.:     0.2863773 α      in ANC's #58, #37, #53, ...

........................................................................
.............................. CYCLE   19 ..............................
........................................................................
   1   -507.9409858 -0.507941E+03  0.170E-01    1.01       0.0  T
   2   -507.9409673  0.185596E-04  0.103E-01    1.01       1.0  T
   3   -507.9381161  0.285116E-02  0.873E-02    1.01       1.0  T
   4   -507.9410250 -0.290889E-02  0.196E-02    1.01       1.0  T
   5   -507.9411521 -0.127140E-03  0.507E-03    1.01       1.2  T
   6   -507.9411566 -0.449052E-05  0.290E-03    1.01       2.1  T
   7   -507.9411574 -0.740066E-06  0.169E-03    1.01       3.5  T
   8   -507.9411580 -0.695978E-06  0.603E-04    1.01       9.9  T
   9   -507.9411582 -0.113632E-06  0.233E-04    1.01      25.5  T
     SCC iter.                  ...        0 min,  2.322 sec
     gradient                   ...        0 min,  0.485 sec
 * total energy  :  -498.6118455 Eh     change       -0.2667157E-01 Eh
   gradient norm :     0.1064505 Eh/α   predicted    -0.2558935E-01 (  -4.06%)
   displ. norm   :     0.7063103 α      lambda       -0.5444152E-01
   maximum displ.:     0.2263631 α      in ANC's #37, #58, #26, ...

........................................................................
.............................. CYCLE   20 ..............................
........................................................................
   1   -508.0182765 -0.508018E+03  0.174E-01    0.98       0.0  T
   2   -508.0174490  0.827422E-03  0.144E-01    0.99       1.0  T
   3   -508.0179237 -0.474652E-03  0.909E-02    0.99       1.0  T
   4   -508.0187657 -0.841962E-03  0.470E-02    0.99       1.0  T
   5   -508.0196383 -0.872696E-03  0.120E-02    0.99       1.0  T
   6   -508.0196959 -0.575261E-04  0.432E-03    0.99       1.4  T
   7   -508.0196988 -0.290748E-05  0.251E-03    0.99       2.4  T
   8   -508.0196988 -0.726970E-08  0.168E-03    0.99       3.5  T
   9   -508.0197000 -0.117398E-05  0.448E-04    0.99      13.3  T
  10   -508.0197000 -0.372088E-07  0.253E-04    0.99      23.5  T
  11   -508.0197000 -0.136856E-07  0.134E-04    0.99      44.3  T
     SCC iter.                  ...        0 min,  2.836 sec
     gradient                   ...        0 min,  0.486 sec
 * total energy  :  -498.6420535 Eh     change       -0.3020799E-01 Eh
   gradient norm :     0.1010486 Eh/α   predicted    -0.4080057E-01 (  35.07%)
   displ. norm   :     0.8310261 α      lambda       -0.3944270E-01
   maximum displ.:     0.4378290 α      in ANC's #37, #26, #53, ...
 * RMSD in coord.:     0.7594277 α      energy gain  -0.2316621E+01 Eh

generating ANC from model Hessian ...
Using Lindh-Hessian (1995)
 Shifting diagonal of input Hessian by    1.0034481276276680E-002
 Lowest  eigenvalues of input Hessian
    0.010000    0.010000    0.010010    0.010019    0.010021    0.010022
    0.010023    0.010026    0.010027    0.010028    0.010031    0.010031
    0.010033    0.010033    0.010033    0.010034    0.010034    0.000000
 Highest eigenvalues
    2.753529    2.753584    3.057925    3.061030    3.098953    3.098974


........................................................................
.............................. CYCLE   21 ..............................
........................................................................
   1   -508.0460378 -0.508046E+03  0.134E-01    0.98       0.0  T
   2   -508.0451144  0.923409E-03  0.110E-01    0.98       1.0  T
   3   -508.0444634  0.651016E-03  0.798E-02    0.98       1.0  T
   4   -508.0464742 -0.201081E-02  0.187E-02    0.98       1.0  T
   5   -508.0466052 -0.130949E-03  0.572E-03    0.98       1.0  T
   6   -508.0466151 -0.991883E-05  0.289E-03    0.98       2.1  T
   7   -508.0466165 -0.140989E-05  0.170E-03    0.98       3.5  T
   8   -508.0466170 -0.457235E-06  0.746E-04    0.98       8.0  T
   9   -508.0466172 -0.201094E-06  0.252E-04    0.98      23.6  T
     SCC iter.                  ...        0 min,  2.325 sec
     gradient                   ...        0 min,  0.485 sec
 * total energy  :  -498.6743132 Eh     change       -0.3225967E-01 Eh
   gradient norm :     0.0832594 Eh/α   predicted     0.0000000E+00 (-100.00%)
   displ. norm   :     0.7506125 α      lambda       -0.3188619E-01
   maximum displ.:     0.3388318 α      in ANC's #72, #57, #49, ...

........................................................................
.............................. CYCLE   22 ..............................
........................................................................
   1   -508.1252613 -0.508125E+03  0.992E-02    0.97       0.0  T
   2   -508.1251934  0.679615E-04  0.640E-02    0.97       1.0  T
   3   -508.1236409  0.155244E-02  0.614E-02    0.97       1.0  T
   4   -508.1253037 -0.166273E-02  0.139E-02    0.97       1.0  T
   5   -508.1253754 -0.717767E-04  0.335E-03    0.97       1.8  T
   6   -508.1253784 -0.299441E-05  0.150E-03    0.97       4.0  T
   7   -508.1253786 -0.174728E-06  0.971E-04    0.97       6.1  T
   8   -508.1253788 -0.179617E-06  0.424E-04    0.97      14.0  T
     SCC iter.                  ...        0 min,  2.065 sec
     gradient                   ...        0 min,  0.486 sec
 * total energy  :  -498.7034400 Eh     change       -0.2912686E-01 Eh
   gradient norm :     0.0491199 Eh/α   predicted    -0.2492577E-01 ( -14.42%)
   displ. norm   :     0.9021853 α      lambda       -0.3171967E-01
   maximum displ.:     0.4077303 α      in ANC's #72, #57, #49, ...

........................................................................
.............................. CYCLE   23 ..............................
........................................................................
   1   -508.1990353 -0.508199E+03  0.109E-01    0.96       0.0  T
   2   -508.1989421  0.931614E-04  0.706E-02    0.96       1.0  T
   3   -508.1970547  0.188740E-02  0.681E-02    0.96       1.0  T
   4   -508.1990921 -0.203735E-02  0.157E-02    0.96       1.0  T
   5   -508.1991849 -0.928690E-04  0.373E-03    0.96       1.6  T
   6   -508.1991891 -0.417079E-05  0.149E-03    0.96       4.0  T
   7   -508.1991893 -0.164593E-06  0.966E-04    0.96       6.2  T
   8   -508.1991894 -0.142398E-06  0.517E-04    0.96      11.5  T
     SCC iter.                  ...        0 min,  2.046 sec
     gradient                   ...        0 min,  0.486 sec
 * total energy  :  -498.7321496 Eh     change       -0.2870957E-01 Eh
   gradient norm :     0.0340751 Eh/α   predicted    -0.2877090E-01 (   0.21%)
   displ. norm   :     0.9275637 α      lambda       -0.2712406E-01
   maximum displ.:     0.4133862 α      in ANC's #72, #57, #49, ...

........................................................................
.............................. CYCLE   24 ..............................
........................................................................
   1   -508.2530090 -0.508253E+03  0.110E-01    0.94       0.0  T
   2   -508.2529529  0.560763E-04  0.679E-02    0.94       1.0  T
   3   -508.2509228  0.203013E-02  0.623E-02    0.94       1.0  T
   4   -508.2530469 -0.212419E-02  0.101E-02    0.94       1.0  T
   5   -508.2530845 -0.375460E-04  0.267E-03    0.94       2.2  T
   6   -508.2530864 -0.190578E-05  0.121E-03    0.94       4.9  T
   7   -508.2530864 -0.388600E-07  0.797E-04    0.94       7.5  T
   8   -508.2530866 -0.156709E-06  0.393E-04    0.94      15.1  T
     SCC iter.                  ...        0 min,  2.047 sec
     gradient                   ...        0 min,  0.486 sec
 * total energy  :  -498.7566660 Eh     change       -0.2451634E-01 Eh
   gradient norm :     0.0389232 Eh/α   predicted    -0.2523048E-01 (   2.91%)
   displ. norm   :     0.9555898 α      lambda       -0.2671524E-01
   maximum displ.:     0.4197566 α      in ANC's #72, #57, #49, ...

........................................................................
.............................. CYCLE   25 ..............................
........................................................................
   1   -508.2990061 -0.508299E+03  0.123E-01    0.93       0.0  T
   2   -508.2989605  0.456032E-04  0.746E-02    0.93       1.0  T
   3   -508.2968834  0.207707E-02  0.597E-02    0.93       1.0  T
   4   -508.2990431 -0.215976E-02  0.726E-03    0.93       1.0  T
   5   -508.2990610 -0.178278E-04  0.244E-03    0.93       2.4  T
   6   -508.2990622 -0.120763E-05  0.134E-03    0.93       4.4  T
   7   -508.2990623 -0.146837E-06  0.745E-04    0.93       8.0  T
   8   -508.2990625 -0.146757E-06  0.331E-04    0.93      18.0  T
     SCC iter.                  ...        0 min,  2.049 sec
     gradient                   ...        0 min,  0.486 sec
 * total energy  :  -498.7797382 Eh     change       -0.2307225E-01 Eh
   gradient norm :     0.0383864 Eh/α   predicted    -0.2555517E-01 (  10.76%)
   displ. norm   :     0.9165638 α      lambda       -0.2357517E-01
   maximum displ.:     0.4269309 α      in ANC's #57, #72, #49, ...

........................................................................
.............................. CYCLE   26 ..............................
........................................................................
   1   -508.3389355 -0.508339E+03  0.100E-01    0.92       0.0  T
   2   -508.3389010  0.344888E-04  0.612E-02    0.92       1.0  T
   3   -508.3374191  0.148191E-02  0.503E-02    0.92       1.0  T
   4   -508.3389602 -0.154113E-02  0.716E-03    0.92       1.0  T
   5   -508.3389808 -0.206208E-04  0.211E-03    0.92       2.8  T
   6   -508.3389818 -0.101421E-05  0.117E-03    0.92       5.1  T
   7   -508.3389820 -0.152686E-06  0.685E-04    0.92       8.7  T
   8   -508.3389821 -0.119218E-06  0.295E-04    0.92      20.1  T
     SCC iter.                  ...        0 min,  2.047 sec
     gradient                   ...        0 min,  0.487 sec
 * total energy  :  -498.8015125 Eh     change       -0.2177431E-01 Eh
   gradient norm :     0.0280752 Eh/α   predicted    -0.2169021E-01 (  -0.39%)
   displ. norm   :     0.9492687 α      lambda       -0.2225230E-01
   maximum displ.:     0.4489267 α      in ANC's #57, #72, #49, ...

........................................................................
.............................. CYCLE   27 ..............................
........................................................................
   1   -508.3741857 -0.508374E+03  0.116E-01    0.92       0.0  T
   2   -508.3741443  0.413960E-04  0.702E-02    0.92       1.0  T
   3   -508.3723618  0.178256E-02  0.561E-02    0.92       1.0  T
   4   -508.3742164 -0.185462E-02  0.720E-03    0.92       1.0  T
   5   -508.3742360 -0.195840E-04  0.229E-03    0.92       2.6  T
   6   -508.3742370 -0.978042E-06  0.138E-03    0.92       4.3  T
   7   -508.3742373 -0.312078E-06  0.683E-04    0.92       8.7  T
   8   -508.3742374 -0.127809E-06  0.287E-04    0.92      20.7  T
     SCC iter.                  ...        0 min,  2.051 sec
     gradient                   ...        0 min,  0.487 sec
 * total energy  :  -498.8218856 Eh     change       -0.2037313E-01 Eh
   gradient norm :     0.0248309 Eh/α   predicted    -0.2115205E-01 (   3.82%)
   displ. norm   :     0.9555549 α      lambda       -0.2061501E-01
   maximum displ.:     0.4628004 α      in ANC's #57, #49, #72, ...

........................................................................
.............................. CYCLE   28 ..............................
........................................................................
   1   -508.4074872 -0.508407E+03  0.115E-01    0.91       0.0  T
   2   -508.4074521  0.350846E-04  0.692E-02    0.91       1.0  T
   3   -508.4058801  0.157204E-02  0.528E-02    0.91       1.0  T
   4   -508.4075182 -0.163809E-02  0.536E-03    0.91       1.1  T
   5   -508.4075272 -0.904719E-05  0.209E-03    0.91       2.8  T
   6   -508.4075278 -0.533534E-06  0.138E-03    0.91       4.3  T
   7   -508.4075281 -0.360943E-06  0.606E-04    0.91       9.8  T
   8   -508.4075282 -0.112210E-06  0.213E-04    0.91      27.9  T
     SCC iter.                  ...        0 min,  2.072 sec
     gradient                   ...        0 min,  0.487 sec
 * total energy  :  -498.8408029 Eh     change       -0.1891725E-01 Eh
   gradient norm :     0.0254191 Eh/α   predicted    -0.1971913E-01 (   4.24%)
   displ. norm   :     0.9585609 α      lambda       -0.2017774E-01
   maximum displ.:     0.4640326 α      in ANC's #57, #49, #72, ...

........................................................................
.............................. CYCLE   29 ..............................
........................................................................
   1   -508.4400018 -0.508440E+03  0.125E-01    0.91       0.0  T
   2   -508.4399814  0.203546E-04  0.746E-02    0.91       1.0  T
   3   -508.4387742  0.120724E-02  0.455E-02    0.91       1.0  T
   4   -508.4400252 -0.125097E-02  0.561E-03    0.91       1.1  T
   5   -508.4400364 -0.112179E-04  0.215E-03    0.91       2.8  T
   6   -508.4400371 -0.695690E-06  0.135E-03    0.91       4.4  T
   7   -508.4400374 -0.264622E-06  0.700E-04    0.91       8.5  T
   8   -508.4400375 -0.155784E-06  0.249E-04    0.91      23.9  T
     SCC iter.                  ...        0 min,  2.049 sec
     gradient                   ...        0 min,  0.487 sec
 * total energy  :  -498.8587160 Eh     change       -0.1791313E-01 Eh
   gradient norm :     0.0233150 Eh/α   predicted    -0.1935892E-01 (   8.07%)
   displ. norm   :     0.9415270 α      lambda       -0.1798199E-01
   maximum displ.:     0.4721325 α      in ANC's #57, #49, #72, ...

........................................................................
.............................. CYCLE   30 ..............................
........................................................................
   1   -508.4714010 -0.508471E+03  0.114E-01    0.91       0.0  T
   2   -508.4713930  0.808191E-05  0.677E-02    0.91       1.0  T
   3   -508.4706938  0.699174E-03  0.331E-02    0.91       1.0  T
   4   -508.4714162 -0.722382E-03  0.483E-03    0.91       1.2  T
   5   -508.4714250 -0.878144E-05  0.168E-03    0.91       3.5  T
   6   -508.4714252 -0.280533E-06  0.112E-03    0.91       5.3  T
   7   -508.4714254 -0.173527E-06  0.575E-04    0.91      10.3  T
   8   -508.4714255 -0.104701E-06  0.186E-04    0.91      32.0  T
     SCC iter.                  ...        0 min,  2.071 sec
     gradient                   ...        0 min,  0.487 sec
 * total energy  :  -498.8756826 Eh     change       -0.1696662E-01 Eh
   gradient norm :     0.0197094 Eh/α   predicted    -0.1696128E-01 (  -0.03%)
   displ. norm   :     0.9576347 α      lambda       -0.1671440E-01
   maximum displ.:     0.4888279 α      in ANC's #57, #49, #51, ...

........................................................................
.............................. CYCLE   31 ..............................
........................................................................
   1   -508.5016307 -0.508502E+03  0.117E-01    0.91       0.0  T
   2   -508.5016231  0.768852E-05  0.691E-02    0.91       1.0  T
   3   -508.5009349  0.688108E-03  0.340E-02    0.91       1.0  T
   4   -508.5016464 -0.711482E-03  0.480E-03    0.91       1.2  T
   5   -508.5016551 -0.869563E-05  0.175E-03    0.91       3.4  T
   6   -508.5016555 -0.362748E-06  0.115E-03    0.91       5.2  T
   7   -508.5016557 -0.217979E-06  0.581E-04    0.91      10.2  T
   8   -508.5016558 -0.109466E-06  0.191E-04    0.91      31.2  T
     SCC iter.                  ...        0 min,  2.065 sec
     gradient                   ...        0 min,  0.486 sec
 * total energy  :  -498.8914814 Eh     change       -0.1579873E-01 Eh
   gradient norm :     0.0176858 Eh/α   predicted    -0.1602128E-01 (   1.41%)
   displ. norm   :     0.9601172 α      lambda       -0.1557536E-01
   maximum displ.:     0.4974208 α      in ANC's #57, #49, #51, ...

........................................................................
.............................. CYCLE   32 ..............................
........................................................................
   1   -508.5313108 -0.508531E+03  0.116E-01    0.91       0.0  T
   2   -508.5313024  0.839328E-05  0.686E-02    0.91       1.0  T
   3   -508.5306143  0.688102E-03  0.352E-02    0.91       1.0  T
   4   -508.5313283 -0.713979E-03  0.427E-03    0.91       1.4  T
   5   -508.5313348 -0.644179E-05  0.167E-03    0.91       3.6  T
   6   -508.5313350 -0.257819E-06  0.113E-03    0.91       5.2  T
   7   -508.5313352 -0.199797E-06  0.523E-04    0.91      11.4  T
   8   -508.5313353 -0.925191E-07  0.166E-04    0.91      35.7  T
     SCC iter.                  ...        0 min,  2.046 sec
     gradient                   ...        0 min,  0.487 sec
 * total energy  :  -498.9061864 Eh     change       -0.1470509E-01 Eh
   gradient norm :     0.0161055 Eh/α   predicted    -0.1496656E-01 (   1.78%)
   displ. norm   :     0.9616202 α      lambda       -0.1447744E-01
   maximum displ.:     0.5029866 α      in ANC's #57, #49, #50, ...

........................................................................
.............................. CYCLE   33 ..............................
........................................................................
   1   -508.5590902 -0.508559E+03  0.118E-01    0.91       0.0  T
   2   -508.5590840  0.621371E-05  0.697E-02    0.91       1.0  T
   3   -508.5584952  0.588777E-03  0.329E-02    0.91       1.0  T
   4   -508.5591062 -0.611021E-03  0.392E-03    0.91       1.5  T
   5   -508.5591115 -0.531250E-05  0.165E-03    0.91       3.6  T
   6   -508.5591117 -0.197004E-06  0.116E-03    0.91       5.1  T
   7   -508.5591120 -0.238921E-06  0.469E-04    0.91      12.7  T
   8   -508.5591120 -0.783444E-07  0.166E-04    0.91      35.9  T
     SCC iter.                  ...        0 min,  2.066 sec
     gradient                   ...        0 min,  0.486 sec
 * total energy  :  -498.9196791 Eh     change       -0.1349266E-01 Eh
   gradient norm :     0.0156017 Eh/α   predicted    -0.1393247E-01 (   3.26%)
   displ. norm   :     0.9577902 α      lambda       -0.1351634E-01
   maximum displ.:     0.5026571 α      in ANC's #57, #49, #51, ...

........................................................................
.............................. CYCLE   34 ..............................
........................................................................
   1   -508.5863030 -0.508586E+03  0.117E-01    0.91       0.0  T
   2   -508.5862983  0.471310E-05  0.692E-02    0.91       1.0  T
   3   -508.5857773  0.521021E-03  0.311E-02    0.91       1.0  T
   4   -508.5863179 -0.540618E-03  0.380E-03    0.91       1.6  T
   5   -508.5863230 -0.514803E-05  0.159E-03    0.91       3.7  T
   6   -508.5863232 -0.220295E-06  0.110E-03    0.91       5.4  T
   7   -508.5863235 -0.232945E-06  0.432E-04    0.91      13.8  T
   8   -508.5863235 -0.687845E-07  0.159E-04    0.91      37.5  T
     SCC iter.                  ...        0 min,  2.067 sec
     gradient                   ...        0 min,  0.487 sec
 * total energy  :  -498.9322881 Eh     change       -0.1260903E-01 Eh
   gradient norm :     0.0139829 Eh/α   predicted    -0.1295786E-01 (   2.77%)
   displ. norm   :     0.9522613 α      lambda       -0.1210430E-01
   maximum displ.:     0.5090993 α      in ANC's #57, #49, #51, ...

........................................................................
.............................. CYCLE   35 ..............................
........................................................................
   1   -508.6118396 -0.508612E+03  0.104E-01    0.91       0.0  T
   2   -508.6118345  0.508878E-05  0.613E-02    0.91       1.0  T
   3   -508.6113372  0.497325E-03  0.311E-02    0.91       1.0  T
   4   -508.6118542 -0.517022E-03  0.375E-03    0.91       1.6  T
   5   -508.6118594 -0.520339E-05  0.143E-03    0.91       4.2  T
   6   -508.6118597 -0.243160E-06  0.933E-04    0.91       6.4  T
   7   -508.6118598 -0.166123E-06  0.387E-04    0.91      15.4  T
     SCC iter.                  ...        0 min,  1.812 sec
     gradient                   ...        0 min,  0.486 sec
 * total energy  :  -498.9438398 Eh     change       -0.1155164E-01 Eh
   gradient norm :     0.0123873 Eh/α   predicted    -0.1154024E-01 (  -0.10%)
   displ. norm   :     0.9532338 α      lambda       -0.1110527E-01
   maximum displ.:     0.5101922 α      in ANC's #57, #49, #51, ...

........................................................................
.............................. CYCLE   36 ..............................
........................................................................
   1   -508.6384079 -0.508638E+03  0.100E-01    0.91       0.0  T
   2   -508.6384053  0.262111E-05  0.592E-02    0.91       1.0  T
   3   -508.6380007  0.404570E-03  0.284E-02    0.91       1.0  T
   4   -508.6384212 -0.420415E-03  0.370E-03    0.91       1.6  T
   5   -508.6384264 -0.527822E-05  0.127E-03    0.91       4.7  T
   6   -508.6384266 -0.131768E-06  0.895E-04    0.91       6.6  T
   7   -508.6384267 -0.160883E-06  0.331E-04    0.91      17.9  T
     SCC iter.                  ...        0 min,  1.813 sec
     gradient                   ...        0 min,  0.487 sec
 * total energy  :  -498.9544366 Eh     change       -0.1059680E-01 Eh
   gradient norm :     0.0112436 Eh/α   predicted    -0.1059805E-01 (   0.01%)
   displ. norm   :     0.9548245 α      lambda       -0.1023471E-01
   maximum displ.:     0.5153500 α      in ANC's #57, #49, #51, ...

........................................................................
.............................. CYCLE   37 ..............................
........................................................................
   1   -508.6623708 -0.508662E+03  0.103E-01    0.90       0.0  T
   2   -508.6623696  0.126341E-05  0.607E-02    0.90       1.0  T
   3   -508.6620214  0.348194E-03  0.269E-02    0.90       1.0  T
   4   -508.6623834 -0.362003E-03  0.357E-03    0.90       1.7  T
   5   -508.6623882 -0.477678E-05  0.126E-03    0.90       4.7  T
   6   -508.6623882 -0.575732E-07  0.961E-04    0.90       6.2  T
   7   -508.6623884 -0.216176E-06  0.332E-04    0.90      17.9  T
     SCC iter.                  ...        0 min,  1.791 sec
     gradient                   ...        0 min,  0.486 sec
 * total energy  :  -498.9640916 Eh     change       -0.9654980E-02 Eh
   gradient norm :     0.0106241 Eh/α   predicted    -0.9782779E-02 (   1.32%)
   displ. norm   :     0.9604344 α      lambda       -0.9651318E-02
   maximum displ.:     0.5032405 α      in ANC's #57, #49, #51, ...

........................................................................
.............................. CYCLE   38 ..............................
........................................................................
   1   -508.6837938 -0.508684E+03  0.113E-01    0.90       0.0  T
   2   -508.6837932  0.613710E-06  0.664E-02    0.90       1.0  T
   3   -508.6834566  0.336616E-03  0.268E-02    0.90       1.0  T
   4   -508.6838063 -0.349665E-03  0.363E-03    0.90       1.6  T
   5   -508.6838109 -0.465683E-05  0.144E-03    0.90       4.1  T
   6   -508.6838109 -0.952900E-08  0.115E-03    0.90       5.2  T
   7   -508.6838113 -0.344910E-06  0.337E-04    0.90      17.7  T
   8   -508.6838113 -0.354078E-07  0.132E-04    0.90      45.0  T
     SCC iter.                  ...        0 min,  2.044 sec
     gradient                   ...        0 min,  0.487 sec
 * total energy  :  -498.9727619 Eh     change       -0.8670319E-02 Eh
   gradient norm :     0.0110704 Eh/α   predicted    -0.9276998E-02 (   7.00%)
   displ. norm   :     0.9346469 α      lambda       -0.8844263E-02
   maximum displ.:     0.5007478 α      in ANC's #57, #63, #51, ...

........................................................................
.............................. CYCLE   39 ..............................
........................................................................
   1   -508.7038791 -0.508704E+03  0.106E-01    0.90       0.0  T
   2   -508.7038798 -0.637471E-06  0.623E-02    0.90       1.0  T
   3   -508.7036148  0.264930E-03  0.237E-02    0.90       1.0  T
   4   -508.7038896 -0.274807E-03  0.352E-03    0.90       1.7  T
   5   -508.7038942 -0.453529E-05  0.133E-03    0.90       4.5  T
   6   -508.7038942 -0.459235E-07  0.102E-03    0.90       5.8  T
   7   -508.7038945 -0.235983E-06  0.311E-04    0.90      19.1  T
   8   -508.7038945 -0.306743E-07  0.122E-04    0.90      48.6  T
     SCC iter.                  ...        0 min,  2.047 sec
     gradient                   ...        0 min,  0.487 sec
 * total energy  :  -498.9808124 Eh     change       -0.8050487E-02 Eh
   gradient norm :     0.0094515 Eh/α   predicted    -0.8285146E-02 (   2.91%)
   displ. norm   :     0.9397635 α      lambda       -0.7751763E-02
   maximum displ.:     0.4975623 α      in ANC's #57, #63, #51, ...

........................................................................
.............................. CYCLE   40 ..............................
........................................................................
   1   -508.7226783 -0.508723E+03  0.995E-02    0.90       0.0  T
   2   -508.7226795 -0.120548E-05  0.584E-02    0.90       1.0  T
   3   -508.7224518  0.227678E-03  0.224E-02    0.90       1.0  T
   4   -508.7226886 -0.236736E-03  0.328E-03    0.90       1.8  T
   5   -508.7226926 -0.402764E-05  0.116E-03    0.90       5.1  T
   6   -508.7226926 -0.467690E-07  0.895E-04    0.90       6.6  T
   7   -508.7226928 -0.200398E-06  0.286E-04    0.90      20.8  T
     SCC iter.                  ...        0 min,  1.811 sec
     gradient                   ...        0 min,  0.487 sec
 * total energy  :  -498.9880492 Eh     change       -0.7236819E-02 Eh
   gradient norm :     0.0085852 Eh/α   predicted    -0.7298880E-02 (   0.86%)
   displ. norm   :     0.9445995 α      lambda       -0.7046720E-02
   maximum displ.:     0.4947534 α      in ANC's #57, #63, #51, ...

........................................................................
.............................. CYCLE   41 ..............................
........................................................................
   1   -508.7406608 -0.508741E+03  0.994E-02    0.89       0.0  T
   2   -508.7406623 -0.146152E-05  0.584E-02    0.89       1.0  T
   3   -508.7404454  0.216899E-03  0.220E-02    0.89       1.0  T
   4   -508.7406709 -0.225486E-03  0.331E-03    0.89       1.8  T
   5   -508.7406749 -0.402771E-05  0.116E-03    0.89       5.1  T
   6   -508.7406749 -0.991440E-08  0.932E-04    0.89       6.4  T
   7   -508.7406751 -0.217614E-06  0.273E-04    0.89      21.8  T
     SCC iter.                  ...        0 min,  1.809 sec
     gradient                   ...        0 min,  0.487 sec
 * total energy  :  -498.9945574 Eh     change       -0.6508176E-02 Eh
   gradient norm :     0.0082898 Eh/α   predicted    -0.6667141E-02 (   2.44%)
   displ. norm   :     0.9444323 α      lambda       -0.6603213E-02
   maximum displ.:     0.4826226 α      in ANC's #57, #63, #51, ...

........................................................................
.............................. CYCLE   42 ..............................
........................................................................
   1   -508.7590040 -0.508759E+03  0.107E-01    0.89       0.0  T
   2   -508.7590067 -0.267818E-05  0.627E-02    0.89       1.0  T
   3   -508.7588328  0.173903E-03  0.199E-02    0.89       1.0  T
   4   -508.7590134 -0.180647E-03  0.326E-03    0.89       1.8  T
   5   -508.7590172 -0.378827E-05  0.121E-03    0.89       4.9  T
   6   -508.7590171  0.134174E-06  0.109E-03    0.89       5.5  T
   7   -508.7590174 -0.325532E-06  0.246E-04    0.89      24.1  T
   8   -508.7590174 -0.189969E-07  0.101E-04    0.89      59.1  T
     SCC iter.                  ...        0 min,  2.079 sec
     gradient                   ...        0 min,  0.488 sec
 * total energy  :  -499.0003623 Eh     change       -0.5804927E-02 Eh
   gradient norm :     0.0084516 Eh/α   predicted    -0.6246485E-02 (   7.61%)
   displ. norm   :     0.9175392 α      lambda       -0.5868576E-02
   maximum displ.:     0.4723268 α      in ANC's #57, #63, #51, ...
 * RMSD in coord.:     1.1605354 α      energy gain  -0.3583088E+00 Eh

generating ANC from model Hessian ...
Using Lindh-Hessian (1995)
 Shifting diagonal of input Hessian by    1.0041671543608082E-002
 Lowest  eigenvalues of input Hessian
    0.010000    0.010000    0.010000    0.010000    0.010008    0.010012
    0.010019    0.010021    0.010023    0.010025    0.010026    0.010028
    0.010031    0.010034    0.010036    0.010038    0.010039    0.010040
 Highest eigenvalues
    3.022597    3.023587    3.031578    3.034227    3.059264    3.059293


........................................................................
.............................. CYCLE   43 ..............................
........................................................................
   1   -508.7740372 -0.508774E+03  0.962E-02    0.89       0.0  T
   2   -508.7740407 -0.344229E-05  0.565E-02    0.89       1.0  T
   3   -508.7739179  0.122802E-03  0.171E-02    0.89       1.0  T
   4   -508.7740452 -0.127341E-03  0.310E-03    0.89       1.9  T
   5   -508.7740488 -0.361984E-05  0.103E-03    0.89       5.8  T
   6   -508.7740488  0.651812E-07  0.887E-04    0.89       6.7  T
   7   -508.7740490 -0.209055E-06  0.304E-04    0.89      19.5  T
     SCC iter.                  ...        0 min,  1.791 sec
     gradient                   ...        0 min,  0.487 sec
 * total energy  :  -499.0056765 Eh     change       -0.5314192E-02 Eh
   gradient norm :     0.0088411 Eh/α   predicted     0.0000000E+00 (-100.00%)
[...]
 593:  0.00 594:  0.00 595:  0.00 596:  0.00 597:  0.00 598:  0.00 599:  0.00 600:  0.00
 601:  0.00 602:  0.00 603:  0.00 604:  0.00 605:  0.00 606:  0.00 607:  0.00 608:  0.00
 609:  0.00 610:  0.00 611:  0.00 612:  0.00 613:  0.00 614:  0.00 615:  0.00 616:  0.00
 617:  0.00 618:  0.00 619:  0.00 620:  0.00 621:  0.00 622:  0.00 623:  0.00 624:  0.00
 625:  0.00 626:  0.00 627:  0.00 628:  0.00 629:  0.00 630:  0.00 631:  0.00 632:  0.00
 633:  0.00 634:  0.00 635:  0.00 636:  0.00 637:  0.00 638:  0.00 639:  0.00 640:  0.00
 641:  0.00 642:  0.00 643:  0.00 644:  0.00 645:  0.00 646:  0.00 647:  0.00 648:  0.00
 649:  0.00 650:  0.00 651:  0.00 652:  0.00 653:  0.00 654:  0.00 655:  0.00 656:  0.00
 657:  0.00 658:  0.00 659:  0.00 660:  0.00 661:  0.00 662:  0.00 663:  0.00 664:  0.00
 665:  0.00 666:  0.00 667:  0.00 668:  0.00 669:  0.00 670:  0.00 671:  0.00 672:  0.00
 673:  0.00 674:  0.00 675:  0.00 676:  0.00 677:  0.00 678:  0.00 679:  0.00 680:  0.00
 681:  0.00 682:  0.00 683:  0.00 684:  0.00 685:  0.00 686:  0.00 687:  0.00 688:  0.00
 689:  0.00 690:  0.00 691:  0.00 692:  0.00 693:  0.00 694:  0.00 695:  0.00 696:  0.00
 697:  0.00 698:  0.00 699:  0.00 700:  0.00 701:  0.00 702:  0.00 703:  0.00 704:  0.00
 705:  0.00 706:  0.00 707:  0.00 708:  0.00 709:  0.00 710:  0.00 711:  0.00 712:  0.00
 713:  0.00 714:  0.00 715:  0.00 716:  0.00 717:  0.00 718:  0.00 719:  0.00 720:  0.00
 721:  0.00 722:  0.00 723:  0.00 724:  0.00 725:  0.00 726:  0.00 727:  0.00 728:  0.00
 729:  0.00 730:  0.00 731:  0.00 732:  0.00 733:  0.00 734:  0.00 735:  0.00 736:  0.00
 737:  0.00 738:  0.00 739:  0.00 740:  0.00 741:  0.00 742:  0.00 743:  0.00 744:  0.00
 745:  0.00 746:  0.00 747:  0.00 748:  0.00 749:  0.00 750:  0.00 751:  0.00 752:  0.00
 753:  0.00 754:  0.00 755:  0.00 756:  0.00 757:  0.00 758:  0.00 759:  0.00 760:  0.00
 761:  0.00 762:  0.00 763:  0.00 764:  0.00 765:  0.00 766:  0.00 767:  0.00 768:  0.00
 769:  0.00 770:  0.00 771:  0.00 772:  0.00 773:  0.00 774:  0.00 775:  0.00 776:  0.00
 777:  0.00 778:  0.00 779:  0.00 780:  0.00 781:  0.00 782:  0.00 783:  0.00 784:  0.00
 785:  0.00 786:  0.00 787:  0.00 788:  0.00 789:  0.00 790:  0.00 791:  0.00 792:  0.00
 793:  0.00 794:  0.00 795:  0.00 796:  0.00 797:  0.00 798:  0.00 799:  0.00 800:  0.00
 801:  0.00 802:  0.00 803:  0.00 804:  0.00 805:  0.00 806:  0.00 807:  0.00 808:  0.00
 809:  0.00 810:  0.00 811:  0.00 812:  0.00 813:  0.00 814:  0.00 815:  0.00 816:  0.00
 817:  0.00 818:  0.00 819:  0.00 820:  0.00 821:  0.00 822:  0.00 823:  0.00 824:  0.00
 825:  0.00 826:  0.00 827:  0.00 828:  0.00 829:  0.00 830:  0.00 831:  0.00 832:  0.00
 833:  0.00 834:  0.00 835:  0.00 836:  0.00 837:  0.00 838:  0.00 839:  0.00 840:  0.00
 841:  0.00 842:  0.00 843:  0.00 844:  0.00 845:  0.00 846:  0.00 847:  0.00 848:  0.00
 849:  0.00
 output can be read by thermo (or use thermo option).
 writing <g98.out> molden fake output.
 recommended (thermochemical) frequency scaling factor: 1.0
           -------------------------------------------------
          |             Thermodynamic Functions             |
           -------------------------------------------------
 symmetry recognition skipped because # atoms >         200
 inverting freq            1   6.5064796650830239     
 inverting freq            2   5.5488052223834732     
 inverting freq            3   4.8858929804652593     
 inverting freq            4   4.6905857367117667     
 inverting freq            5   3.3891216938163784     
 inverting freq            6   1.6600761063119855     
 inverting freq            7   1.5093306638519131     

          ...................................................
          :                      SETUP                      :
          :.................................................:
          :  # frequencies                         842      :
          :  # imaginary freq.                       0      :
          :  linear?                             false      :
          :  only rotor calc.                    false      :
          :  symmetry                               C1      :
          :  rotational number                       1      :
          :  scaling factor                  1.0000000      :
          :  rotor cutoff                   50.0000000 cm⁻¹ :
          :  imag. cutoff                  -20.0000000 cm⁻¹ :
          :.................................................:

    mode    ω/cm⁻¹     T·S(HO)/kcal·mol⁻¹    T·S(FR)/kcal·mol⁻¹   T·S(vib)
   ------------------------------------------------------------------------
       1      6.51    -2.64310 (  0.03%)    -1.66065 ( 99.97%)    -1.66094
       2      5.55    -2.73743 (  0.02%)    -1.70782 ( 99.98%)    -1.70798
       3      4.89    -2.81280 (  0.01%)    -1.74551 ( 99.99%)    -1.74561
       4      4.69    -2.83697 (  0.01%)    -1.75760 ( 99.99%)    -1.75768
       5      3.39    -3.02952 (  0.00%)    -1.85387 (100.00%)    -1.85390
       6      1.66    -3.45237 (  0.00%)    -2.06530 (100.00%)    -2.06530
       7      1.51    -3.50877 (  0.00%)    -2.09350 (100.00%)    -2.09350
       8      2.27    -3.26631 (  0.00%)    -1.97227 (100.00%)    -1.97227
       9      3.77    -2.96618 (  0.00%)    -1.82220 (100.00%)    -1.82224
      10      4.62    -2.84538 (  0.01%)    -1.76180 ( 99.99%)    -1.76188
      11      5.73    -2.71789 (  0.02%)    -1.69805 ( 99.98%)    -1.69823
      12      5.98    -2.69302 (  0.02%)    -1.68562 ( 99.98%)    -1.68582
      13      6.54    -2.64021 (  0.03%)    -1.65921 ( 99.97%)    -1.65950
      14      6.80    -2.61716 (  0.03%)    -1.64768 ( 99.97%)    -1.64801
      15      7.36    -2.57016 (  0.05%)    -1.62418 ( 99.95%)    -1.62463
      16      7.74    -2.54013 (  0.06%)    -1.60917 ( 99.94%)    -1.60970
      17      7.85    -2.53184 (  0.06%)    -1.60502 ( 99.94%)    -1.60558
      18      8.00    -2.52098 (  0.07%)    -1.59959 ( 99.93%)    -1.60019
      19     10.65    -2.35095 (  0.21%)    -1.51456 ( 99.79%)    -1.51628
      20     12.79    -2.24285 (  0.43%)    -1.46050 ( 99.57%)    -1.46383
      21     13.67    -2.20331 (  0.56%)    -1.44072 ( 99.44%)    -1.44496
      22     16.33    -2.09814 (  1.12%)    -1.38811 ( 98.88%)    -1.39609
      23     17.12    -2.07007 (  1.36%)    -1.37407 ( 98.64%)    -1.38350
      24     18.84    -2.01335 (  1.98%)    -1.34569 ( 98.02%)    -1.35889
      25     19.95    -1.97952 (  2.47%)    -1.32876 ( 97.53%)    -1.34484
      26     20.81    -1.95442 (  2.91%)    -1.31620 ( 97.09%)    -1.33480
      27     23.45    -1.88378 (  4.62%)    -1.28085 ( 95.38%)    -1.30867
      28     24.21    -1.86494 (  5.21%)    -1.27142 ( 94.79%)    -1.30234
      29     26.71    -1.80667 (  7.53%)    -1.24225 ( 92.47%)    -1.28477
      30     28.58    -1.76664 (  9.65%)    -1.22220 ( 90.35%)    -1.27474
      31     31.46    -1.70993 ( 13.55%)    -1.19380 ( 86.45%)    -1.26373
      32     35.10    -1.64527 ( 19.53%)    -1.16140 ( 80.47%)    -1.25592
      33     38.87    -1.58497 ( 26.75%)    -1.13117 ( 73.25%)    -1.25254
      34     39.16    -1.58050 ( 27.34%)    -1.12893 ( 72.66%)    -1.25240
      35     39.32    -1.57808 ( 27.67%)    -1.12771 ( 72.33%)    -1.25233
      36     39.47    -1.57594 ( 27.96%)    -1.12664 ( 72.04%)    -1.25227
      37     39.63    -1.57341 ( 28.31%)    -1.12537 ( 71.69%)    -1.25220
      38     39.67    -1.57283 ( 28.39%)    -1.12508 ( 71.61%)    -1.25219
      39     39.73    -1.57198 ( 28.50%)    -1.12465 ( 71.50%)    -1.25216
      40     39.87    -1.56996 ( 28.78%)    -1.12364 ( 71.22%)    -1.25211
      41     41.20    -1.55056 ( 31.55%)    -1.11391 ( 68.45%)    -1.25168
      42     44.27    -1.50816 ( 38.05%)    -1.09264 ( 61.95%)    -1.25076
      43     49.25    -1.44519 ( 48.49%)    -1.06101 ( 51.51%)    -1.24731
      44     54.45    -1.38611 ( 58.44%)    -1.03132 ( 41.56%)    -1.23864
      45     59.92    -1.32973 ( 67.34%)    -1.00295 ( 32.66%)    -1.22301
      46     61.31    -1.31622 ( 69.33%)    -0.99615 ( 30.67%)    -1.21805
      47     65.08    -1.28113 ( 74.16%)    -0.97847 ( 25.84%)    -1.20292
      48     68.91    -1.24751 ( 78.30%)    -0.96151 ( 21.70%)    -1.18545
      49     70.79    -1.23170 ( 80.08%)    -0.95353 ( 19.92%)    -1.17628
      50     71.44    -1.22635 ( 80.65%)    -0.95083 ( 19.35%)    -1.17304
      51     71.67    -1.22447 ( 80.85%)    -0.94988 ( 19.15%)    -1.17189
      52     71.75    -1.22380 ( 80.92%)    -0.94954 ( 19.08%)    -1.17147
      53     74.82    -1.19928 ( 83.37%)    -0.93715 ( 16.63%)    -1.15569
      54     75.12    -1.19694 ( 83.59%)    -0.93597 ( 16.41%)    -1.15412
      55     77.48    -1.17884 ( 85.22%)    -0.92682 ( 14.78%)    -1.14158
      56     79.14    -1.16642 ( 86.25%)    -0.92053 ( 13.75%)    -1.13262
      57     81.91    -1.14625 ( 87.81%)    -0.91032 ( 12.19%)    -1.11749
      58     84.61    -1.12728 ( 89.13%)    -0.90071 ( 10.87%)    -1.10265
      59     86.39    -1.11517 ( 89.91%)    -0.89456 ( 10.09%)    -1.09291
      60     87.65    -1.10672 ( 90.42%)    -0.89028 (  9.58%)    -1.08599
      61     88.84    -1.09883 ( 90.88%)    -0.88628 (  9.12%)    -1.07945
      62     91.17    -1.08371 ( 91.70%)    -0.87860 (  8.30%)    -1.06670
      63     93.37    -1.06980 ( 92.40%)    -0.87153 (  7.60%)    -1.05474
      64     93.98    -1.06603 ( 92.58%)    -0.86961 (  7.42%)    -1.05146
      65     94.93    -1.06017 ( 92.85%)    -0.86663 (  7.15%)    -1.04634
      66     97.01    -1.04753 ( 93.41%)    -0.86019 (  6.59%)    -1.03519
      67     99.85    -1.03076 ( 94.08%)    -0.85165 (  5.92%)    -1.02016
      68    109.82    -0.97559 ( 95.88%)    -0.82347 (  4.12%)    -0.96932
      69    111.60    -0.96628 ( 96.13%)    -0.81871 (  3.87%)    -0.96057
      70    115.27    -0.94756 ( 96.58%)    -0.80911 (  3.42%)    -0.94282
      71    121.12    -0.91901 ( 97.18%)    -0.79444 (  2.82%)    -0.91550
      72    124.29    -0.90414 ( 97.45%)    -0.78679 (  2.55%)    -0.90114
      73    124.32    -0.90403 ( 97.45%)    -0.78673 (  2.55%)    -0.90104
      74    124.36    -0.90384 ( 97.45%)    -0.78663 (  2.55%)    -0.90085
      75    124.42    -0.90353 ( 97.46%)    -0.78647 (  2.54%)    -0.90056
      76    124.48    -0.90328 ( 97.46%)    -0.78634 (  2.54%)    -0.90031
      77    126.83    -0.89254 ( 97.64%)    -0.78080 (  2.36%)    -0.88990
      78    127.41    -0.88992 ( 97.68%)    -0.77946 (  2.32%)    -0.88736
      79    127.73    -0.88846 ( 97.71%)    -0.77870 (  2.29%)    -0.88594
      80    131.78    -0.87059 ( 97.97%)    -0.76947 (  2.03%)    -0.86854
      81    135.48    -0.85473 ( 98.18%)    -0.76126 (  1.82%)    -0.85302
      82    137.32    -0.84702 ( 98.27%)    -0.75727 (  1.73%)    -0.84547
      83    157.50    -0.76910 ( 98.99%)    -0.71664 (  1.01%)    -0.76857
      84    159.25    -0.76288 ( 99.04%)    -0.71338 (  0.96%)    -0.76241
      85    160.66    -0.75790 ( 99.07%)    -0.71076 (  0.93%)    -0.75746
      86    161.12    -0.75628 ( 99.08%)    -0.70991 (  0.92%)    -0.75586
      87    162.96    -0.74989 ( 99.12%)    -0.70655 (  0.88%)    -0.74951
      88    164.57    -0.74435 ( 99.16%)    -0.70363 (  0.84%)    -0.74400
      89    165.97    -0.73960 ( 99.18%)    -0.70112 (  0.82%)    -0.73928
      90    166.61    -0.73745 ( 99.20%)    -0.69999 (  0.80%)    -0.73715
      91    169.17    -0.72887 ( 99.24%)    -0.69546 (  0.76%)    -0.72862
      92    169.44    -0.72799 ( 99.25%)    -0.69499 (  0.75%)    -0.72774
      93    170.43    -0.72471 ( 99.26%)    -0.69326 (  0.74%)    -0.72448
      94    171.63    -0.72079 ( 99.28%)    -0.69119 (  0.72%)    -0.72057
      95    172.79    -0.71702 ( 99.30%)    -0.68919 (  0.70%)    -0.71683
      96    173.81    -0.71375 ( 99.32%)    -0.68746 (  0.68%)    -0.71357
      97    174.07    -0.71291 ( 99.32%)    -0.68701 (  0.68%)    -0.71273
      98    174.45    -0.71168 ( 99.33%)    -0.68636 (  0.67%)    -0.71151
      99    175.70    -0.70770 ( 99.35%)    -0.68425 (  0.65%)    -0.70755
     100    177.61    -0.70167 ( 99.38%)    -0.68105 (  0.62%)    -0.70154
     101    179.40    -0.69609 ( 99.40%)    -0.67808 (  0.60%)    -0.69598
     102    180.06    -0.69403 ( 99.41%)    -0.67698 (  0.59%)    -0.69392
     103    180.34    -0.69317 ( 99.41%)    -0.67653 (  0.59%)    -0.69307
     104    180.56    -0.69250 ( 99.42%)    -0.67617 (  0.58%)    -0.69240
     105    181.86    -0.68849 ( 99.43%)    -0.67404 (  0.57%)    -0.68841
     106    181.95    -0.68821 ( 99.43%)    -0.67389 (  0.57%)    -0.68813
     107    182.00    -0.68806 ( 99.43%)    -0.67381 (  0.57%)    -0.68798
     108    182.19    -0.68750 ( 99.44%)    -0.67351 (  0.56%)    -0.68742
     109    182.99    -0.68505 ( 99.45%)    -0.67220 (  0.55%)    -0.68498
     110    184.79    -0.67961 ( 99.47%)    -0.66930 (  0.53%)    -0.67956
     111    186.64    -0.67409 ( 99.49%)    -0.66635 (  0.51%)    -0.67405
     112    187.75    -0.67082 ( 99.50%)    -0.66460 (  0.50%)    -0.67079
     113    191.36    -0.66029 ( 99.54%)    -0.65895 (  0.46%)    -0.66028
     114    192.67    -0.65652 ( 99.55%)    -0.65693 (  0.45%)    -0.65652
     115    195.58    -0.64826 ( 99.57%)    -0.65249 (  0.43%)    -0.64828
     116    195.64    -0.64809 ( 99.58%)    -0.65240 (  0.42%)    -0.64811
     117    195.73    -0.64783 ( 99.58%)    -0.65226 (  0.42%)    -0.64785
     118    195.87    -0.64745 ( 99.58%)    -0.65206 (  0.42%)    -0.64747
     119    196.06    -0.64690 ( 99.58%)    -0.65176 (  0.42%)    -0.64692
     120    196.08    -0.64685 ( 99.58%)    -0.65173 (  0.42%)    -0.64687
     121    196.16    -0.64663 ( 99.58%)    -0.65162 (  0.42%)    -0.64665
     122    196.95    -0.64442 ( 99.59%)    -0.65042 (  0.41%)    -0.64445
     123    197.03    -0.64420 ( 99.59%)    -0.65030 (  0.41%)    -0.64422
     124    197.67    -0.64242 ( 99.59%)    -0.64934 (  0.41%)    -0.64244
     125    198.35    -0.64053 ( 99.60%)    -0.64832 (  0.40%)    -0.64056
     126    198.74    -0.63945 ( 99.60%)    -0.64774 (  0.40%)    -0.63948
     127    199.25    -0.63804 ( 99.61%)    -0.64699 (  0.39%)    -0.63808
     128    200.28    -0.63522 ( 99.61%)    -0.64546 (  0.39%)    -0.63526
     129    201.19    -0.63273 ( 99.62%)    -0.64412 (  0.38%)    -0.63278
     130    201.60    -0.63161 ( 99.62%)    -0.64351 (  0.38%)    -0.63165
     131    202.66    -0.62875 ( 99.63%)    -0.64196 (  0.37%)    -0.62880
     132    202.75    -0.62849 ( 99.63%)    -0.64182 (  0.37%)    -0.62854
     133    203.16    -0.62738 ( 99.63%)    -0.64122 (  0.37%)    -0.62744
     134    203.33    -0.62693 ( 99.64%)    -0.64098 (  0.36%)    -0.62698
     135    203.47    -0.62656 ( 99.64%)    -0.64078 (  0.36%)    -0.62661
     136    203.65    -0.62606 ( 99.64%)    -0.64051 (  0.36%)    -0.62612
     137    203.76    -0.62577 ( 99.64%)    -0.64035 (  0.36%)    -0.62583
     138    209.14    -0.61157 ( 99.67%)    -0.63264 (  0.33%)    -0.61163
     139    209.22    -0.61135 ( 99.67%)    -0.63252 (  0.33%)    -0.61142
     140    209.40    -0.61088 ( 99.68%)    -0.63227 (  0.32%)    -0.61095
     141    213.13    -0.60128 ( 99.70%)    -0.62704 (  0.30%)    -0.60136
     142    213.18    -0.60116 ( 99.70%)    -0.62697 (  0.30%)    -0.60123
     143    217.19    -0.59106 ( 99.72%)    -0.62145 (  0.28%)    -0.59114
     144    221.78    -0.57975 ( 99.74%)    -0.61524 (  0.26%)    -0.57984
     145    222.02    -0.57917 ( 99.74%)    -0.61493 (  0.26%)    -0.57926
     146    226.76    -0.56782 ( 99.76%)    -0.60868 (  0.24%)    -0.56792
     147    230.29    -0.55954 ( 99.78%)    -0.60410 (  0.22%)    -0.55964
     148    234.81    -0.54915 ( 99.79%)    -0.59834 (  0.21%)    -0.54925
     149    249.72    -0.51657 ( 99.84%)    -0.58010 (  0.16%)    -0.51667
     150    261.85    -0.49176 ( 99.87%)    -0.56604 (  0.13%)    -0.49186
     151    261.95    -0.49158 ( 99.87%)    -0.56594 (  0.13%)    -0.49168
     152    262.03    -0.49141 ( 99.87%)    -0.56584 (  0.13%)    -0.49151
     153    262.12    -0.49123 ( 99.87%)    -0.56574 (  0.13%)    -0.49132
     154    262.18    -0.49112 ( 99.87%)    -0.56568 (  0.13%)    -0.49121
     155    262.67    -0.49015 ( 99.87%)    -0.56513 (  0.13%)    -0.49025
     156    262.76    -0.48997 ( 99.87%)    -0.56502 (  0.13%)    -0.49006
     157    263.90    -0.48772 ( 99.87%)    -0.56374 (  0.13%)    -0.48782
     158    266.98    -0.48171 ( 99.88%)    -0.56030 (  0.12%)    -0.48180
     159    270.80    -0.47438 ( 99.88%)    -0.55609 (  0.12%)    -0.47447
     160    276.19    -0.46427 ( 99.89%)    -0.55026 (  0.11%)    -0.46436
     161    282.37    -0.45297 ( 99.90%)    -0.54370 (  0.10%)    -0.45306
     162    287.16    -0.44444 ( 99.91%)    -0.53872 (  0.09%)    -0.44453
     163    288.75    -0.44164 ( 99.91%)    -0.53708 (  0.09%)    -0.44173
     164    294.87    -0.43107 ( 99.92%)    -0.53086 (  0.08%)    -0.43116
     165    297.42    -0.42677 ( 99.92%)    -0.52832 (  0.08%)    -0.42685
     166    299.29    -0.42364 ( 99.92%)    -0.52646 (  0.08%)    -0.42372
   ------------------------------------------------------------------------

   temp. (K)  partition function   enthalpy   heat capacity  entropy
                                   cal/mol     cal/K/mol   cal/K/mol   J/K/mol
 298.15  VIB  0.171E+99           109556.610    681.368    708.056
         ROT  0.263E+11              888.752      2.981     50.661
         INT  0.449+109           110445.362    684.349    758.717
         TR   0.162E+30             1481.254      4.968     49.869
         TOT                      111926.6163   689.3173   808.5863  3383.1250

       T/K    H(0)-H(T)+PV         H(T)/Eh          T*S/Eh         G(T)/Eh
   ------------------------------------------------------------------------
    298.15    0.178366E+00    0.207842E+01    0.384185E+00    0.169424E+01
   ------------------------------------------------------------------------

         :::::::::::::::::::::::::::::::::::::::::::::::::::::
         ::                  THERMODYNAMIC                  ::
         :::::::::::::::::::::::::::::::::::::::::::::::::::::
         :: total free energy        -497.346814223618 Eh   ::
         ::.................................................::
         :: total energy             -499.041050039359 Eh   ::
         :: zero point energy           1.900054837523 Eh   ::
         :: G(RRHO) w/o ZPVE           -0.205819021782 Eh   ::
         :: G(RRHO) contrib.            1.694235815741 Eh   ::
         :::::::::::::::::::::::::::::::::::::::::::::::::::::
imag cut-off (cm-1) :    5.00
 found            2  significant imaginary frequencies
 writing imag mode distorted coords to xtbhess.xyz
 for further optimization.

optimized geometry written to: xtbopt.xyz


           -------------------------------------------------
          | TOTAL ENERGY             -499.041050039359 Eh   |
          | TOTAL ENTHALPY           -496.962628785255 Eh   |
          | TOTAL FREE ENERGY        -497.346814223618 Eh   |
          | GRADIENT NORM               0.000700909790 Eh/α |
          | HOMO-LUMO GAP               0.863470837250 eV   |
           -------------------------------------------------

------------------------------------------------------------------------
 * finished run on 2021/11/19 at 00:16:04.314     
------------------------------------------------------------------------
 total:
 * wall-time:     0 d,  0 h, 55 min, 18.525 sec
 *  cpu-time:     0 d,  0 h, 55 min, 18.552 sec
 * ratio c/w:     1.000 speedup
 SCF:
 * wall-time:     0 d,  0 h,  0 min, 17.520 sec
 *  cpu-time:     0 d,  0 h,  0 min, 17.520 sec
 * ratio c/w:     1.000 speedup
 ANC optimizer:
 * wall-time:     0 d,  0 h,  4 min, 26.765 sec
 *  cpu-time:     0 d,  0 h,  4 min, 26.756 sec
 * ratio c/w:     1.000 speedup
 analytical hessian:
 * wall-time:     0 d,  0 h, 50 min, 33.777 sec
 *  cpu-time:     0 d,  0 h, 50 min, 33.813 sec
 * ratio c/w:     1.000 speedup

