283
 energy: -496.325432613498 gnorm: 2.225008984977 xtb: 6.4.1 (bd6e46d)
Zn       35.14570000000000    0.03885600000000   -0.01261500000000
C        37.47469100000001   -3.10793700000000    1.31007400000000
C        38.39079900000000   -2.16373000000000    1.25979200000000
C        37.97961900000000   -1.10982600000000    0.33850000000000
C        38.59849000000000    0.01452000000000   -0.00791000000000
C        37.89444700000000    1.23446800000000   -0.37201500000000
C        38.22255800000000    2.19452300000000   -1.21948800000000
C        37.18777800000001    3.21080900000000   -1.23638600000000
C        36.25151000000000    2.83434700000000   -0.38949500000000
N        36.65350000000000    1.60133600000000    0.17432300000000
C        34.99043600000001    3.47934600000000   -0.01034300000000
C        33.89521800000000    2.84456400000000    0.34041700000000
C        32.82159300000000    3.16251900000000    1.30944600000000
C        31.98403000000000    2.16576600000000    1.23227900000000
C        32.42232800000000    1.16208300000000    0.25182700000000
N        33.52726600000000    1.60093600000000   -0.23246500000000
C        31.81149300000000   -0.09118800000000   -0.16172100000000
C        32.47565300000000   -1.19569500000000   -0.41614500000000
C        32.10180500000000   -2.25863700000000   -1.37367300000000
C        33.05055200000000   -3.15239200000000   -1.28465300000000
C        34.03627600000000   -2.71494200000000   -0.30177600000000
N        33.68323000000000   -1.56913700000000    0.19502200000000
C        35.26716400000000   -3.37101300000000    0.14394600000000
C        36.39020500000000   -2.72515100000000    0.41106700000000
N        36.71880500000000   -1.47771000000000   -0.18733700000000
H        37.53495300000000   -4.01771800000000    1.92762100000000
H        39.30712600000000   -2.20367900000000    1.83784100000000
H        39.14992300000000    2.21131900000000   -1.82063200000000
H        37.20467700000000    4.11549700000000   -1.84900800000000
H        34.94271300000000    4.57414900000000   -0.01412000000000
H        32.76877100000000    4.04124400000000    1.93443800000000
H        31.07240000000000    2.13009600000000    1.84960300000000
H        30.71324200000000   -0.08827800000000   -0.26099100000000
H        31.23294900000000   -2.31110100000000   -2.02262300000000
H        33.04770600000000   -4.06870100000000   -1.88341300000000
H        35.23168100000000   -4.46681400000000    0.25587000000000
Zn      132.35036700000001   -0.00852000000000   -0.01704700000000
C       130.02137600000000    2.83827200000000    1.86645700000000
C       129.10526899999999    1.91978200000000    1.64188400000000
C       129.51644899999999    1.05508500000000    0.54107000000000
C       128.89757800000001    0.01452000000000   -0.00791000000000
C       129.60162099999999   -1.11670500000000   -0.59201300000000
C       129.27350999999999   -1.90287600000000   -1.60287900000000
C       130.30829000000000   -2.89838600000000   -1.80801900000000
C       131.24455800000001   -2.68556900000000   -0.90598900000000
N       130.84256700000000   -1.57855700000000   -0.12321800000000
C       132.50563199999999   -3.38971000000000   -0.65307600000000
C       133.60084900000001   -2.83101800000000   -0.19064300000000
C       134.67447500000000   -3.32322300000000    0.70257900000000
C       135.51203799999999   -2.32945600000000    0.81166400000000
C       135.07373999999999   -1.16130700000000    0.03442900000000
N       133.96880200000001   -1.50269900000000   -0.52287000000000
C       135.68457500000000    0.14692800000000   -0.13944000000000
C       135.02041399999999    1.27946100000000   -0.18454700000000
C       135.39426300000000    2.50158700000000   -0.92826200000000
C       134.44551600000000    3.36331400000000   -0.67498300000000
C       133.45979199999999    2.75112000000000    0.20968000000000
N       133.81283800000000    1.53304100000000    0.48529000000000
C       132.22890400000000    3.31311400000000    0.76937500000000
C       131.10586300000000    2.62890900000000    0.91204200000000
N       130.77726300000000    1.51413400000000    0.09260800000000
H       129.96111500000001    3.61769600000000    2.64206100000000
H       128.18894200000000    1.85180200000000    2.21730900000000
H       128.34614500000001   -1.80785900000000   -2.19670400000000
H       130.29139100000000   -3.67372000000000   -2.57783900000000
H       132.55335500000001   -4.46480800000000   -0.85988900000000
H       134.72729600000000   -4.30264000000000    1.15370600000000
H       136.42366799999999   -2.40892800000000    1.42489000000000
H       136.78282500000000    0.16248400000000   -0.23752800000000
H       136.26311899999999    2.67353100000000   -1.55621400000000
H       134.44836200000000    4.37479600000000   -1.09336100000000
H       132.26438600000000    4.36913100000000    1.08264400000000
C        41.57050100000001    0.02565100000000   -0.00386800000000
C        42.78603400000000    0.00030800000000   -0.01434800000000
C        44.20755100000001   -0.02111600000000   -0.01852400000000
C        45.41611300000000   -0.02332600000000   -0.01841800000000
C        46.83718800000000   -0.00436700000000   -0.01904600000000
C        48.04833000000000    0.02565100000000   -0.00386800000000
C        57.14567700000001    0.02565100000000   -0.00386800000000
C        58.36121000000000    0.00030800000000   -0.01434800000000
C        59.78272700000001   -0.02111600000000   -0.01852400000000
C        60.99128800000000   -0.02332600000000   -0.01841800000000
C        62.41236400000000   -0.00436700000000   -0.01904600000000
C        63.62350600000000    0.02565100000000   -0.00386800000000
C        72.72085199999999    0.02565100000000   -0.00386800000000
C        73.93638500000000    0.00030800000000   -0.01434800000000
C        75.35790200000000   -0.02111600000000   -0.01852400000000
C        76.56646400000000   -0.02332600000000   -0.01841800000000
C        77.98753900000000   -0.00436700000000   -0.01904600000000
C        79.19868099999999    0.02565100000000   -0.00386800000000
C        88.29602800000001    0.02565100000000   -0.00386800000000
C        89.51156100000001    0.00030800000000   -0.01434800000000
C        90.93307800000001   -0.02111600000000   -0.01852400000000
C        92.14163900000000   -0.02332600000000   -0.01841800000000
C        93.56271500000000   -0.00436700000000   -0.01904600000000
C        94.77385700000001    0.02565100000000   -0.00386800000000
C       103.87120299999999    0.02565100000000   -0.00386800000000
C       105.08673600000000    0.00030800000000   -0.01434800000000
C       106.50825300000000   -0.02111600000000   -0.01852400000000
C       107.71681500000000   -0.02332600000000   -0.01841800000000
C       109.13789000000001   -0.00436700000000   -0.01904600000000
C       110.34903199999999    0.02565100000000   -0.00386800000000
C       119.44637900000001    0.02565100000000   -0.00386800000000
C       120.66191200000000    0.00030800000000   -0.01434800000000
C       122.08342900000001   -0.02111600000000   -0.01852400000000
C       123.29199000000000   -0.02332600000000   -0.01841800000000
C       124.71306600000000   -0.00436700000000   -0.01904600000000
C       125.92420800000001    0.02565100000000   -0.00386800000000
Zn       52.63692000000000    0.03726900000000    0.00096000000000
C        50.35711000000001   -3.22417900000000   -0.90870600000000
C        49.40090000000000   -2.32482800000000   -1.01073200000000
C        49.79327400000000   -1.16252400000000   -0.20821600000000
C        49.15815800000000   -0.01125100000000    0.00405000000000
C        49.84361500000000    1.26334900000000    0.23027900000000
C        49.50832500000000    2.34194900000000    0.93452000000000
C        50.53286600000000    3.36126500000000    0.84393800000000
C        51.48346300000001    2.86434100000000    0.07057300000000
N        51.10646900000000    1.54773600000000   -0.34557000000000
C        52.73060300000000    3.47604200000000   -0.34629200000000
C        53.83215500000000    2.80878500000000   -0.67806400000000
C        54.82570100000001    3.06077000000000   -1.71223400000000
C        55.71958400000000    2.09991000000000   -1.61075000000000
C        55.33988600000001    1.18802700000000   -0.50677300000000
N        54.24497100000000    1.63734500000000    0.00059400000000
C        55.99709300000000   -0.01125100000000    0.00405000000000
C        55.37368200000001   -1.08043300000000    0.46556700000000
C        55.75239400000001   -2.01254800000000    1.54104200000000
C        54.81172600000000   -2.92669400000000    1.62690800000000
C        53.80342400000000   -2.63091600000000    0.62948100000000
N        54.14119900000000   -1.57753800000000   -0.01981400000000
C        52.55103100000000   -3.33792300000000    0.29828800000000
C        51.43715400000000   -2.74122600000000   -0.04905300000000
N        51.05504200000001   -1.45846900000000    0.36862900000000
H        50.35745400000000   -4.21525300000000   -1.39994000000000
H        48.49236600000000   -2.44652300000000   -1.59188000000000
H        48.58347300000000    2.46030000000000    1.51144500000000
H        50.56016100000000    4.35043000000000    1.30058800000000
H        52.81654300000001    4.57342000000000   -0.40831500000000
H        54.85837300000000    3.86698600000000   -2.43905800000000
H        56.61264600000001    1.98694200000000   -2.24452400000000
H        56.66714400000000   -1.93814200000000    2.15121200000000
H        54.83077200000000   -3.74030300000000    2.33517600000000
H        52.58951500000001   -4.43788200000000    0.35732400000000
Zn       68.21209600000000    0.03726900000000    0.00096000000000
C        65.93228499999999   -3.22417900000000   -0.90870600000000
C        64.97607600000001   -2.32482800000000   -1.01073200000000
C        65.36845000000000   -1.16252400000000   -0.20821600000000
C        64.73333300000000   -0.01125100000000    0.00405000000000
C        65.41879000000000    1.26334900000000    0.23027900000000
C        65.08350000000000    2.34194900000000    0.93452000000000
C        66.10804200000000    3.36126500000000    0.84393800000000
C        67.05863900000000    2.86434100000000    0.07057300000000
N        66.68164500000000    1.54773600000000   -0.34557000000000
C        68.30577800000000    3.47604200000000   -0.34629200000000
C        69.40733000000000    2.80878500000000   -0.67806400000000
C        70.40087699999999    3.06077000000000   -1.71223400000000
C        71.29476000000000    2.09991000000000   -1.61075000000000
C        70.91506200000001    1.18802700000000   -0.50677300000000
N        69.82014599999999    1.63734500000000    0.00059400000000
C        71.57226900000002   -0.01125100000000    0.00405000000000
C        70.94885700000000   -1.08043300000000    0.46556700000000
C        71.32756999999999   -2.01254800000000    1.54104200000000
C        70.38690099999999   -2.92669400000000    1.62690800000000
C        69.37860000000002   -2.63091600000000    0.62948100000000
N        69.71637500000001   -1.57753800000000   -0.01981400000000
C        68.12620699999999   -3.33792300000000    0.29828800000000
C        67.01233000000001   -2.74122600000000   -0.04905300000000
N        66.63021800000000   -1.45846900000000    0.36862900000000
H        65.93263000000000   -4.21525300000000   -1.39994000000000
H        64.06754100000001   -2.44652300000000   -1.59188000000000
H        64.15864800000000    2.46030000000000    1.51144500000000
H        66.13533600000000    4.35043000000000    1.30058800000000
H        68.39171800000000    4.57342000000000   -0.40831500000000
H        70.43354900000000    3.86698600000000   -2.43905800000000
H        72.18782100000000    1.98694200000000   -2.24452400000000
H        72.24232000000001   -1.93814200000000    2.15121200000000
H        70.40594800000001   -3.74030300000000    2.33517600000000
H        68.16469100000000   -4.43788200000000    0.35732400000000
Zn       83.78727100000000    0.03726900000000    0.00096000000000
C        81.50746100000001   -3.22417900000000   -0.90870600000000
C        80.55125099999999   -2.32482800000000   -1.01073200000000
C        80.94362500000001   -1.16252400000000   -0.20821600000000
C        80.30850900000002   -0.01125100000000    0.00405000000000
C        80.99396600000000    1.26334900000000    0.23027900000000
C        80.65867600000001    2.34194900000000    0.93452000000000
C        81.68321700000000    3.36126500000000    0.84393800000000
C        82.63381400000000    2.86434100000000    0.07057300000000
N        82.25682000000000    1.54773600000000   -0.34557000000000
C        83.88095400000000    3.47604200000000   -0.34629200000000
C        84.98250600000000    2.80878500000000   -0.67806400000000
C        85.97605200000000    3.06077000000000   -1.71223400000000
C        86.86993500000001    2.09991000000000   -1.61075000000000
C        86.49023699999999    1.18802700000000   -0.50677300000000
N        85.39532199999999    1.63734500000000    0.00059400000000
C        87.14744399999999   -0.01125100000000    0.00405000000000
C        86.52403300000002   -1.08043300000000    0.46556700000000
C        86.90274500000001   -2.01254800000000    1.54104200000000
C        85.96207700000001   -2.92669400000000    1.62690800000000
C        84.95377499999999   -2.63091600000000    0.62948100000000
N        85.29155000000000   -1.57753800000000   -0.01981400000000
C        83.70138200000001   -3.33792300000000    0.29828800000000
C        82.58750499999999   -2.74122600000000   -0.04905300000000
N        82.20539300000002   -1.45846900000000    0.36862900000000
H        81.50780500000000   -4.21525300000000   -1.39994000000000
H        79.64271700000000   -2.44652300000000   -1.59188000000000
H        79.73382400000001    2.46030000000000    1.51144500000000
H        81.71051199999999    4.35043000000000    1.30058800000000
H        83.96689400000001    4.57342000000000   -0.40831500000000
H        86.00872400000000    3.86698600000000   -2.43905800000000
H        87.76299700000000    1.98694200000000   -2.24452400000000
H        87.81749600000002   -1.93814200000000    2.15121200000000
H        85.98112300000000   -3.74030300000000    2.33517600000000
H        83.73986700000000   -4.43788200000000    0.35732400000000
Zn       99.36244700000000    0.03726900000000    0.00096000000000
C        97.08263599999999   -3.22417900000000   -0.90870600000000
C        96.12642700000001   -2.32482800000000   -1.01073200000000
C        96.51880100000000   -1.16252400000000   -0.20821600000000
C        95.88368500000000   -0.01125100000000    0.00405000000000
C        96.56914200000001    1.26334900000000    0.23027900000000
C        96.23385100000000    2.34194900000000    0.93452000000000
C        97.25839300000000    3.36126500000000    0.84393800000000
C        98.20899000000000    2.86434100000000    0.07057300000000
N        97.83199600000000    1.54773600000000   -0.34557000000000
C        99.45613000000000    3.47604200000000   -0.34629200000000
C       100.55768100000000    2.80878500000000   -0.67806400000000
C       101.55122800000001    3.06077000000000   -1.71223400000000
C       102.44511100000000    2.09991000000000   -1.61075000000000
C       102.06541300000002    1.18802700000000   -0.50677300000000
N       100.97049699999999    1.63734500000000    0.00059400000000
C       102.72262000000001   -0.01125100000000    0.00405000000000
C       102.09920800000000   -1.08043300000000    0.46556700000000
C       102.47792099999999   -2.01254800000000    1.54104200000000
C       101.53725200000000   -2.92669400000000    1.62690800000000
C       100.52895100000001   -2.63091600000000    0.62948100000000
N       100.86672600000000   -1.57753800000000   -0.01981400000000
C        99.27655799999999   -3.33792300000000    0.29828800000000
C        98.16268100000001   -2.74122600000000   -0.04905300000000
N        97.78056900000000   -1.45846900000000    0.36862900000000
H        97.08298100000000   -4.21525300000000   -1.39994000000000
H        95.21789300000000   -2.44652300000000   -1.59188000000000
H        95.30899900000000    2.46030000000000    1.51144500000000
H        97.28568700000000    4.35043000000000    1.30058800000000
H        99.54206900000000    4.57342000000000   -0.40831500000000
H       101.58390000000000    3.86698600000000   -2.43905800000000
H       103.33817200000000    1.98694200000000   -2.24452400000000
H       103.39267100000001   -1.93814200000000    2.15121200000000
H       101.55629900000000   -3.74030300000000    2.33517600000000
H        99.31504200000002   -4.43788200000000    0.35732400000000
Zn      114.93762200000000    0.03726900000000    0.00096000000000
C       112.65781200000001   -3.22417900000000   -0.90870600000000
C       111.70160199999999   -2.32482800000000   -1.01073200000000
C       112.09397700000001   -1.16252400000000   -0.20821600000000
C       111.45886000000000   -0.01125100000000    0.00405000000000
C       112.14431700000000    1.26334900000000    0.23027900000000
C       111.80902700000000    2.34194900000000    0.93452000000000
C       112.83356800000000    3.36126500000000    0.84393800000000
C       113.78416500000002    2.86434100000000    0.07057300000000
N       113.40717100000002    1.54773600000000   -0.34557000000000
C       115.03130500000000    3.47604200000000   -0.34629200000000
C       116.13285700000002    2.80878500000000   -0.67806400000000
C       117.12640300000000    3.06077000000000   -1.71223400000000
C       118.02028600000000    2.09991000000000   -1.61075000000000
C       117.64058799999999    1.18802700000000   -0.50677300000000
N       116.54567300000001    1.63734500000000    0.00059400000000
C       118.29779500000001   -0.01125100000000    0.00405000000000
C       117.67438400000000   -1.08043300000000    0.46556700000000
C       118.05309600000000   -2.01254800000000    1.54104200000000
C       117.11242799999999   -2.92669400000000    1.62690800000000
C       116.10412600000001   -2.63091600000000    0.62948100000000
N       116.44190100000000   -1.57753800000000   -0.01981400000000
C       114.85173300000000   -3.33792300000000    0.29828800000000
C       113.73785700000001   -2.74122600000000   -0.04905300000000
N       113.35574400000000   -1.45846900000000    0.36862900000000
H       112.65815600000002   -4.21525300000000   -1.39994000000000
H       110.79306800000002   -2.44652300000000   -1.59188000000000
H       110.88417500000000    2.46030000000000    1.51144500000000
H       112.86086300000001    4.35043000000000    1.30058800000000
H       115.11724500000000    4.57342000000000   -0.40831500000000
H       117.15907600000000    3.86698600000000   -2.43905800000000
H       118.91334800000001    1.98694200000000   -2.24452400000000
H       118.96784700000001   -1.93814200000000    2.15121200000000
H       117.13147400000000   -3.74030300000000    2.33517600000000
H       114.89021800000000   -4.43788200000000    0.35732400000000
283
 energy: -497.287450720851 gnorm: 0.971894878554 xtb: 6.4.1 (bd6e46d)
Zn       35.14972296251186    0.03931428172901   -0.01218587448082
C        37.47259553353422   -3.11341143819688    1.30746739132716
C        38.39802210248370   -2.16198560546828    1.25907623776672
C        37.97677105213815   -1.11298422165306    0.34140400936420
C        38.58940713706531    0.02448671890575   -0.01028885512993
C        37.88917403107970    1.22823465142601   -0.36518385549696
C        38.22847423348313    2.21026137456373   -1.23097134719340
C        37.20450822388136    3.21236385988954   -1.24549670238275
C        36.24518567656465    2.82343862021425   -0.38266685272339
N        36.64398069663450    1.59489082938398    0.17646979833427
C        35.00112499306532    3.48145182809557   -0.01211232139813
C        33.88616560297302    2.83606330819008    0.34206733028440
C        32.82625094850921    3.16767493611862    1.30256638579850
C        31.97030661767417    2.15959107481024    1.23449436654644
C        32.41648380005951    1.16246283852842    0.25946523778653
N        33.54289373182765    1.59579260363130   -0.22919707152377
C        31.80478778368079   -0.07828087727062   -0.15797828588089
C        32.47909721381746   -1.20157689698870   -0.41919524279677
C        32.09681480657690   -2.25498553067594   -1.36851414617474
C        33.05594662752245   -3.16378983085908   -1.28398328060282
C        34.04227386214320   -2.72261429217480   -0.30489349744457
N        33.68440579653539   -1.55817750306112    0.18741968562037
C        35.25489367135190   -3.37545099333220    0.13967387713982
C        36.39671768997155   -2.71553771198363    0.41136595408456
N        36.71761524244945   -1.47939045736569   -0.17692080894904
H        37.53221897993641   -4.01495510799438    1.92450140101558
H        39.30793630447241   -2.20051960792131    1.83658386419323
H        39.14749560082847    2.21357093683268   -1.82000478132490
H        37.20628308560458    4.11372362738915   -1.84865205851797
H        34.94721574180533    4.57285816908390   -0.01214294506252
H        32.77084929455962    4.04051770658086    1.93282878463574
H        31.07252483125808    2.12705768960943    1.84819478529970
H        30.71499453056602   -0.08628328042013   -0.26250880366717
H        31.23399620970898   -2.30794254272898   -2.02018482604814
H        33.05124439233693   -4.06876491047622   -1.88157565533389
H        35.23043441635215   -4.46443631551585    0.25604619669171
Zn      132.34634700805941   -0.00904651279374   -0.01671258342456
C       130.02347785390305    2.84413125097925    1.86491059895589
C       129.09805003230667    1.91819754453058    1.64084377428964
C       129.51932148356593    1.05766133055688    0.54450428178638
C       128.90665224371162    0.00521904040622   -0.01209065884303
C       129.60690053652112   -1.11183274722000   -0.58414921519840
C       129.26760054125845   -1.91620638987917   -1.61706963202836
C       130.29156460548066   -2.89822495214162   -1.81725370656587
C       131.25088433260976   -2.67612253067421   -0.89725425620777
N       130.85207482775218   -1.57262533866183   -0.11992100941833
C       132.49493849013993   -3.39145469608403   -0.65520737356319
C       133.60990305490293   -2.82296588144828   -0.18744035555371
C       134.66981291157015   -3.32701038104749    0.69486132170371
C       135.52576315743664   -2.32379544569131    0.81498157108174
C       135.07959199341337   -1.16309289684698    0.04186525566837
N       133.95316785883520   -1.49825783752947   -0.51870572791469
C       135.69128117280664    0.13354259409828   -0.13815363892269
C       135.01696542576602    1.28581083384698   -0.18645584269787
C       135.39925038434313    2.49703636951171   -0.92387033487971
C       134.44011746694389    3.37439048395413   -0.67220547421841
C       133.45379327927870    2.75924297839914    0.20803895978706
N       133.81166783557180    1.52367838478418    0.47578581014777
C       132.24117717202498    3.31827374477162    0.76599791239867
C       131.09935111434476    2.61940623329219    0.91055509172401
N       130.77846982914579    1.51385780953533    0.10316769474725
H       129.96385017942566    3.61556106168861    2.63848425557451
H       128.18813185411159    1.84893067224835    2.21548592847348
H       128.34857335670708   -1.81018542556979   -2.19651014465634
H       130.28978648108495   -3.67204479423787   -2.57716287657862
H       132.54885408840170   -4.46390787967707   -0.85771209648921
H       134.72521758210846   -4.30162828484911    1.15225921893640
H       136.42354414857888   -2.40568118939733    1.42406975496652
H       136.78107349119222    0.16080522701583   -0.23938568157617
H       136.26207188410618    2.66997458568679   -1.55440373031173
H       134.44482338176994    4.37451907596130   -1.09154298574234
H       132.26563314746898    4.36676542823250    1.08237486597443
C        41.56958277363400    0.02554172618122   -0.00370296921262
C        42.79355746257941    0.00006671637036   -0.01422803941903
C        44.19667122567424   -0.02074442203757   -0.01853749676770
C        45.42141340947013   -0.02289908690684   -0.01840479501518
C        46.79391762092876   -0.00474155099588   -0.01900113608159
C        47.98270707522993    0.03231948475685   -0.00517667743459
C        57.20187308912205    0.03079058892745   -0.00380808099233
C        58.39846935946402   -0.00020231624730   -0.01402641957868
C        59.77355444380771   -0.02062644783578   -0.01888489066611
C        60.99878099170093   -0.02285508548962   -0.01842358545664
C        62.36870627693351   -0.00475003082578   -0.01898469100340
C        63.55803101315788    0.03228387312977   -0.00533018389566
C        72.77702801672189    0.03079399048268   -0.00373353491562
C        73.97366662836457   -0.00018924310569   -0.01400765279220
C        75.34872306305409   -0.02063407816106   -0.01889901505171
C        76.57395967291522   -0.02285406764491   -0.01841983688995
C        77.94390669672896   -0.00474188761108   -0.01898587413654
C        79.13316264986668    0.03227489546806   -0.00536042710922
C        88.35219087543102    0.03079314895128   -0.00370862373424
C        89.54886897513944   -0.00018631113423   -0.01400012359932
C        90.92387707488118   -0.02063679346262   -0.01890359897051
C        92.14915666368097   -0.02285314013642   -0.01841843297375
C        93.51907272837393   -0.00473885941395   -0.01898653080213
C        94.70832714033948    0.03227036527615   -0.00537179055928
C       103.92735087122969    0.03079108691601   -0.00369040773095
C       105.12407471075244   -0.00018525203543   -0.01399206974505
C       106.49903384947937   -0.02063948306354   -0.01890758694001
C       107.72434412914942   -0.02285215467478   -0.01841652610970
C       109.09427122063229   -0.00473362543742   -0.01898583401634
C       110.28344265701672    0.03226592668426   -0.00538984151709
C       119.50299583992785    0.03090058284773   -0.00348398220050
C       120.69864617230395   -0.00003945154706   -0.01390043895412
C       122.07701173088331   -0.02063620081407   -0.01894457475972
C       123.30179884451040   -0.02294453885500   -0.01860122467964
C       124.70459008721767   -0.00470256252947   -0.01884246830316
C       125.92642776655327    0.02536331286714   -0.00367023759939
Zn       52.63360475215543    0.03830432738465    0.00050349564670
C        50.36045521464118   -3.23453910348224   -0.90685271923053
C        49.39725486628994   -2.32132869984584   -1.00760053949433
C        49.82187004327650   -1.18057862706971   -0.21031689649991
C        49.21935067167851   -0.00194628887528    0.00512090529167
C        49.86863752527729    1.26736349256137    0.22734313820070
C        49.50388937706571    2.35626420696845    0.94194235494636
C        50.51934459686781    3.36272923476626    0.84943322658731
C        51.49125411991083    2.85453962275484    0.06519532564575
N        51.11632832012182    1.54538039516366   -0.34219175665521
C        52.72237975975055    3.47837274627477   -0.34555147151619
C        53.83881405116825    2.80285698150013   -0.67910560663694
C        54.82518513254557    3.06593448157172   -1.70770260042663
C        55.72999579994201    2.09174734007719   -1.61011892331652
C        55.33398403925298    1.19258780691735   -0.51640109035528
N        54.22812778934561    1.63512158127467   -0.00302275608793
C        55.95446869202294   -0.00128578673486   -0.00143242556814
C        55.35103600447989   -1.09723699390884    0.47377808991493
C        55.75925432172398   -2.00718545135654    1.53686287683477
C        54.80721575685384   -2.93606175504706    1.62682976942822
C        53.79675638285469   -2.64023216339894    0.63507507557361
N        54.13721637907465   -1.56252132497621   -0.01878855482207
C        52.56504509501563   -3.34311488514703    0.30408073617606
C        51.42667309791660   -2.73378134286077   -0.05314223949090
N        51.05923952574758   -1.45746528151180    0.35802272983737
H        50.35900989718308   -4.21258946759361   -1.39805011907563
H        48.49304173170518   -2.44290901129717   -1.59018769428528
H        48.58440401131148    2.46080612845997    1.51094505936088
H        50.55705818706087    4.34785602415037    1.30089270345952
H        52.81138079399487    4.57115488985872   -0.40999766567746
H        54.85582867175442    3.86619489488681   -2.43646412303392
H        56.61120639945702    1.98498486483800   -2.24246666542308
H        56.66419110256326   -1.93627929900866    2.14791335760973
H        54.82827649044189   -3.74188397377224    2.33502143410634
H        52.59099694989455   -4.43609923661060    0.35638733509246
Zn       68.20867018337474    0.03825824809086    0.00052097190532
C        65.93532196099054   -3.23461324692195   -0.90682323197944
C        64.97254415306463   -2.32158865169866   -1.00767614602528
C        65.39713398393100   -1.18047020937635   -0.20963756438044
C        64.79441908926256   -0.00214785649691    0.00507208621232
C        65.44390218540474    1.26758126738764    0.22701686487493
C        65.07915217782686    2.35622043514900    0.94196722064749
C        66.09451345566328    3.36280279920807    0.84938419427527
C        67.06654661020669    2.85467247362402    0.06518789905263
N        66.69131194127715    1.54531159580310   -0.34220724529178
C        68.29743337246423    3.47833662381131   -0.34544512176166
C        69.41406135531297    2.80282318194162   -0.67911359560976
C        70.40031042241748    3.06592891372639   -1.70771272108807
C        71.30517558005009    2.09171405468910   -1.61012795640381
C        70.90908314620425    1.19263840366337   -0.51649447088327
N        69.80335115078857    1.63515240108013   -0.00302812964879
C        71.52964182887435   -0.00137210834562   -0.00136433772904
C        70.92639653241051   -1.09718169829289    0.47384159774159
C        71.33455721167016   -2.00717684164952    1.53677783733133