 Entering Gaussian System
 *********************************************
 Gaussian 98:
 frequency output generated by the xtb code
 *********************************************
                         Standard orientation:
 --------------------------------------------------------------------
  Center     Atomic     Atomic              Coordinates (Angstroms)
  Number     Number      Type              X           Y           Z
 --------------------------------------------------------------------
    1         29             0       17.022508   -0.005650   -0.004108
    2          6             0       19.492008   -3.206309    1.323884
    3          6             0       20.460469   -2.329535    0.967949
    4          6             0       19.794888   -1.167121    0.453502
    5          6             0       20.462709   -0.038460   -0.041710
    6          6             0       19.805361    1.094729   -0.541455
    7          6             0       20.481169    2.232541   -1.095802
    8          6             0       19.521239    3.116623   -1.457000
    9          6             0       18.260833    2.515975   -1.125580
   10          7             0       18.466536    1.287044   -0.579009
   11          6             0       17.035642    3.124464   -1.332330
   12          6             0       15.805988    2.566528   -1.031984
   13          6             0       14.545791    3.224551   -1.246122
   14          6             0       13.583726    2.364436   -0.841808
   15          6             0       14.254720    1.178152   -0.383818
   16          7             0       15.597119    1.332753   -0.506976
   17          6             0       13.606968    0.051895    0.093035
   18          6             0       14.242112   -1.100968    0.520830
   19          6             0       13.558191   -2.271521    0.999783
   20          6             0       14.511650   -3.174695    1.323666
   21          6             0       15.779173   -2.555518    1.046157
   22          7             0       15.583180   -1.304617    0.557746
   23          6             0       17.004277   -3.156680    1.273403
   24          6             0       18.236278   -2.573627    1.036348
   25          7             0       18.453825   -1.336680    0.513073
   26          1             0       19.598565   -4.186787    1.746187
   27          1             0       21.524487   -2.435002    1.049619
   28          1             0       21.545038    2.316275   -1.201961
   29          1             0       19.636869    4.083617   -1.907028
   30          1             0       17.040874    4.115587   -1.762560
   31          1             0       14.436364    4.212020   -1.651119
   32          1             0       12.518991    2.497434   -0.846855
   33          1             0       12.527459    0.071982    0.128780
   34          1             0       12.491663   -2.366719    1.069895
   35          1             0       14.391678   -4.166670    1.714956
   36          1             0       16.999778   -4.157783    1.680125
   37         29             0       38.829716    0.049950   -0.005631
   38          6             0       36.338108    3.163393    1.481166
   39          6             0       35.375596    2.303890    1.071018
   40          6             0       36.049540    1.173314    0.499727
   41          6             0       35.389816    0.068106   -0.055618
   42          6             0       36.054086   -1.036539   -0.606717
   43          6             0       35.385451   -2.150492   -1.215901
   44          6             0       36.351002   -3.011068   -1.616891
   45          6             0       37.607627   -2.419740   -1.254982
   46          7             0       37.393952   -1.219824   -0.650376
   47          6             0       38.836877   -3.009678   -1.490086
   48          6             0       40.062846   -2.458376   -1.163245
   49          6             0       41.327541   -3.095409   -1.412390
   50          6             0       42.284219   -2.248035   -0.969376
   51          6             0       41.605342   -1.091276   -0.451022
   52          7             0       40.263846   -1.250457   -0.578409
   53          6             0       42.245324    0.013505    0.082961
   54          6             0       41.602395    1.134856    0.577542
   55          6             0       42.278418    2.280062    1.124305
   56          6             0       41.318823    3.154833    1.502920
   57          6             0       40.055353    2.544628    1.189224
   58          7             0       40.260089    1.325997    0.628199
   59          6             0       38.826408    3.125454    1.445920
   60          6             0       37.598258    2.551980    1.168590
   61          7             0       37.389456    1.344665    0.577165
   62          1             0       36.224533    4.119165    1.955059
   63          1             0       34.310588    2.401022    1.150447
   64          1             0       34.322072   -2.235235   -1.326935
   65          1             0       36.241535   -3.956154   -2.112805
   66          1             0       38.838225   -3.978825   -1.967998
   67          1             0       41.443629   -4.061282   -1.865248
   68          1             0       43.349934   -2.372148   -0.983809
   69          1             0       43.325094    0.000913    0.113366
   70          1             0       43.344250    2.379010    1.198960
   71          1             0       41.432023    4.122126    1.953343
   72          1             0       38.824199    4.101614    1.909190
   73          6             0       21.865040   -0.042088   -0.039151
   74          6             0       23.078159   -0.036763   -0.032967
   75          6             0       32.774464    0.060497   -0.052158
   76          6             0       33.987472    0.066523   -0.059682
   77         29             0       27.926427    0.010176   -0.018394
   78          6             0       25.476603   -3.465151   -0.167218
   79          6             0       24.501170   -2.525825   -0.167164
   80          6             0       25.156366   -1.252258   -0.081700
   81          6             0       24.480010   -0.025280   -0.024924
   82          6             0       25.131109    1.215000    0.042244
   83          6             0       24.449379    2.473974    0.137456
   84          6             0       25.405469    3.432855    0.154236
   85          6             0       26.668866    2.757137    0.075494
   86          7             0       26.468883    1.412605    0.018329
   87          6             0       27.891641    3.402890    0.043899
   88          6             0       29.127399    2.784560   -0.017721
   89          6             0       30.376273    3.488866   -0.078421
   90          6             0       31.351488    2.549901   -0.110515
   91          6             0       30.696226    1.274352   -0.060189
   92          7             0       29.355039    1.443350   -0.016397
   93          6             0       31.372669    0.046353   -0.042928
   94          6             0       30.722263   -1.195563   -0.010226
   95          6             0       31.404980   -2.456504    0.044126
   96          6             0       30.448943   -3.415644    0.039867
   97          6             0       29.184913   -2.738355   -0.011513
   98          7             0       29.384522   -1.392591   -0.031786
   99          6             0       27.961653   -3.382570   -0.054359
  100          6             0       26.725612   -2.762746   -0.091298
  101          7             0       26.497751   -1.422170   -0.048845
  102          1             0       25.378510   -4.532296   -0.218063
  103          1             0       23.439219   -2.660480   -0.231062
  104          1             0       23.384602    2.586487    0.197562
  105          1             0       25.285267    4.497122    0.216520
  106          1             0       27.880499    4.483294    0.066745
  107          1             0       30.474368    4.557046   -0.097598
  108          1             0       32.413261    2.686272   -0.175041
  109          1             0       32.470312   -2.570226    0.092862
  110          1             0       30.569734   -4.481214    0.071513
  111          1             0       27.972598   -4.463210   -0.062780
 --------------------------------------------------------------------
     1 basis functions        1 primitive gaussians
     1 alpha electrons        1 beta electrons

 Harmonic frequencies (cm**-1), IR intensities (km*mol⁻¹),
 Raman scattering activities (A**4/amu), Raman depolarization ratios,
 reduced masses (AMU), force constants (mDyne/A) and normal coordinates:
                      1                      2                      3
                        a                      a                      a 
 Frequencies --     1.3101                 4.2559                 5.7670
 Red. masses --    17.0211                12.5418                15.3787
 Frc consts  --     0.0000                 0.0000                 0.0000
 IR Inten    --    31.1919                 0.6639                19.7463
 Raman Activ --     0.0000                 0.0000                 0.0000
 Depolar     --     0.0000                 0.0000                 0.0000
 Atom AN      X      Y      Z        X      Y      Z        X      Y      Z
   1  29     0.01  -0.01  -0.14     0.01  -0.01   0.06     0.00   0.12   0.00
   2   6    -0.03   0.02   0.06     0.03   0.07   0.17    -0.07  -0.03  -0.05
   3   6    -0.02   0.02   0.06     0.03   0.06   0.11    -0.05  -0.05  -0.05
   4   6    -0.01   0.01   0.03     0.02   0.03   0.06    -0.03  -0.03  -0.04
   5   6     0.00  -0.00   0.02     0.00   0.01   0.00    -0.00  -0.05  -0.04
   6   6     0.02  -0.01  -0.02    -0.00  -0.01  -0.04     0.02  -0.03  -0.05
   7   6     0.03  -0.02  -0.02    -0.01  -0.03  -0.09     0.05  -0.06  -0.07
   8   6     0.04  -0.03  -0.06    -0.02  -0.05  -0.13     0.07  -0.04  -0.07
   9   6     0.03  -0.02  -0.08    -0.01  -0.05  -0.10     0.06   0.00  -0.05
  10   7     0.02  -0.01  -0.06    -0.00  -0.02  -0.05     0.03   0.00  -0.04
  11   6     0.03  -0.03  -0.12    -0.02  -0.07  -0.13     0.07   0.04  -0.03
  12   6     0.03  -0.02  -0.14    -0.02  -0.07  -0.11     0.06   0.08   0.01
  13   6     0.03  -0.03  -0.19    -0.02  -0.09  -0.14     0.08   0.12   0.04
  14   6     0.02  -0.02  -0.20    -0.01  -0.07  -0.09     0.06   0.16   0.07
  15   6     0.01  -0.01  -0.15    -0.00  -0.04  -0.03     0.03   0.14   0.06
  16   7     0.02  -0.01  -0.13    -0.01  -0.04  -0.04     0.04   0.10   0.03
  17   6     0.00  -0.00  -0.14     0.01  -0.02   0.04     0.01   0.16   0.09
  18   6    -0.01   0.01  -0.10     0.01   0.01   0.10    -0.02   0.14   0.07
  19   6    -0.02   0.02  -0.09     0.02   0.03   0.18    -0.05   0.17   0.08
  20   6    -0.03   0.03  -0.04     0.03   0.06   0.22    -0.07   0.13   0.05
  21   6    -0.02   0.02  -0.03     0.03   0.05   0.18    -0.06   0.09   0.02
  22   7    -0.01   0.01  -0.07     0.02   0.02   0.12    -0.03   0.11   0.04
  23   6    -0.03   0.03   0.01     0.03   0.06   0.20    -0.07   0.05  -0.00
  24   6    -0.02   0.02   0.02     0.03   0.05   0.15    -0.06   0.01  -0.02
  25   7    -0.01   0.01   0.00     0.02   0.03   0.09    -0.03   0.01  -0.02
  26   1    -0.01   0.01   0.02     0.01   0.03   0.06    -0.03  -0.01  -0.02
  27   1    -0.01   0.00   0.03     0.01   0.02   0.03    -0.02  -0.02  -0.02
  28   1     0.01  -0.01   0.00    -0.00  -0.01  -0.03     0.01  -0.03  -0.03
  29   1     0.01  -0.01  -0.02    -0.01  -0.02  -0.05     0.03  -0.01  -0.02
  30   1     0.01  -0.01  -0.04    -0.01  -0.03  -0.05     0.03   0.01  -0.01
  31   1     0.01  -0.01  -0.06    -0.01  -0.03  -0.06     0.03   0.04   0.01
  32   1     0.01  -0.01  -0.07    -0.00  -0.02  -0.03     0.02   0.06   0.03
  33   1     0.00  -0.00  -0.05     0.00  -0.01   0.01     0.00   0.06   0.03
  34   1    -0.01   0.01  -0.03     0.01   0.01   0.05    -0.01   0.06   0.03
  35   1    -0.01   0.01  -0.01     0.01   0.02   0.08    -0.03   0.04   0.02
  36   1    -0.01   0.01   0.01     0.01   0.02   0.07    -0.03   0.01  -0.00
  37  29    -0.01   0.01  -0.14    -0.01  -0.02   0.06     0.00   0.12   0.01
  38   6     0.03  -0.03   0.07    -0.02  -0.07   0.15    -0.07  -0.04   0.07
  39   6     0.02  -0.02   0.07    -0.02  -0.05   0.09    -0.05  -0.06   0.06
  40   6     0.01  -0.01   0.03    -0.01  -0.03   0.05    -0.03  -0.03   0.04
  41   6    -0.00   0.00   0.03    -0.00  -0.00  -0.01    -0.00  -0.04   0.03
  42   6    -0.02   0.01  -0.01    -0.00   0.02  -0.05     0.02  -0.03   0.03
  43   6    -0.03   0.02  -0.01     0.00   0.05  -0.11     0.05  -0.04   0.03
  44   6    -0.04   0.03  -0.06     0.01   0.07  -0.14     0.07  -0.02   0.03
  45   6    -0.03   0.03  -0.08     0.00   0.05  -0.11     0.06   0.02   0.01
  46   7    -0.02   0.01  -0.05    -0.00   0.03  -0.06     0.03   0.01   0.02
  47   6    -0.04   0.04  -0.13     0.01   0.07  -0.13     0.07   0.06  -0.00
  48   6    -0.03   0.03  -0.15     0.01   0.05  -0.10     0.06   0.09  -0.02
  49   6    -0.03   0.04  -0.20     0.01   0.07  -0.12     0.08   0.14  -0.05
  50   6    -0.02   0.04  -0.21     0.00   0.04  -0.07     0.06   0.17  -0.07
  51   6    -0.01   0.02  -0.16    -0.00   0.02  -0.01     0.03   0.14  -0.05
  52   7    -0.02   0.02  -0.14    -0.00   0.02  -0.03     0.03   0.11  -0.03
  53   6    -0.00   0.01  -0.15    -0.01  -0.01   0.06     0.00   0.16  -0.06
  54   6     0.01  -0.01  -0.10    -0.01  -0.04   0.12    -0.02   0.13  -0.03
  55   6     0.02  -0.02  -0.09    -0.02  -0.07   0.19    -0.05   0.15  -0.03
  56   6     0.03  -0.03  -0.04    -0.02  -0.09   0.23    -0.07   0.11   0.00
  57   6     0.02  -0.02  -0.03    -0.02  -0.07   0.18    -0.06   0.08   0.02
  58   7     0.01  -0.01  -0.07    -0.01  -0.05   0.12    -0.03   0.10  -0.00
  59   6     0.03  -0.03   0.02    -0.02  -0.08   0.19    -0.07   0.03   0.04
  60   6     0.02  -0.02   0.03    -0.02  -0.06   0.14    -0.06   0.00   0.05
  61   7     0.01  -0.01   0.01    -0.01  -0.04   0.08    -0.03   0.00   0.04
  62   1     0.01  -0.01   0.03    -0.01  -0.03   0.06    -0.03  -0.01   0.02
  63   1     0.01  -0.01   0.03    -0.01  -0.01   0.02    -0.02  -0.03   0.02
  64   1    -0.01   0.01   0.00     0.00   0.01  -0.03     0.01  -0.02   0.01
  65   1    -0.02   0.01  -0.02     0.00   0.03  -0.05     0.03  -0.01   0.01
  66   1    -0.01   0.01  -0.04     0.00   0.03  -0.05     0.03   0.02  -0.00
  67   1    -0.01   0.02  -0.07     0.00   0.03  -0.05     0.03   0.04  -0.02
  68   1    -0.01   0.01  -0.07     0.00   0.01  -0.02     0.02   0.06  -0.03
  69   1     0.00   0.00  -0.05    -0.00  -0.00   0.02     0.00   0.06  -0.02
  70   1     0.01  -0.01  -0.03    -0.00  -0.02   0.06    -0.02   0.05  -0.01
  71   1     0.01  -0.01  -0.00    -0.01  -0.03   0.08    -0.03   0.03   0.00
  72   1     0.01  -0.01   0.01    -0.01  -0.03   0.07    -0.03   0.01   0.02
  73   6     0.00  -0.01   0.05     0.00   0.02  -0.01    -0.00  -0.08  -0.04
  74   6     0.00  -0.01   0.07     0.00   0.02  -0.02    -0.00  -0.09  -0.03
  75   6    -0.00   0.00   0.08    -0.00   0.00  -0.03    -0.00  -0.09   0.02
  76   6    -0.00   0.00   0.05    -0.00  -0.00  -0.02    -0.00  -0.07   0.03
  77  29    -0.00  -0.00   0.26    -0.00   0.02  -0.12    -0.00  -0.21  -0.01
  78   6     0.01  -0.00   0.13    -0.01   0.02  -0.03     0.00  -0.09  -0.00
  79   6     0.01  -0.01   0.11    -0.00   0.02  -0.02     0.00  -0.09  -0.01
  80   6     0.00  -0.00   0.10     0.00   0.02  -0.03    -0.00  -0.09  -0.01
  81   6     0.00  -0.01   0.09     0.00   0.02  -0.04    -0.00  -0.09  -0.02
  82   6     0.00  -0.01   0.09     0.01   0.02  -0.05    -0.00  -0.09  -0.02
  83   6    -0.00  -0.01   0.09     0.01   0.02  -0.07    -0.00  -0.09  -0.03
  84   6    -0.00  -0.01   0.10     0.01   0.02  -0.07    -0.00  -0.09  -0.03
  85   6    -0.00  -0.00   0.11     0.01   0.01  -0.06    -0.00  -0.09  -0.02
  86   7     0.00  -0.00   0.11     0.01   0.01  -0.06    -0.00  -0.10  -0.02
  87   6    -0.00  -0.00   0.12     0.01   0.01  -0.06    -0.00  -0.09  -0.02
  88   6    -0.00  -0.00   0.12     0.00   0.01  -0.05    -0.00  -0.09  -0.01
  89   6    -0.01   0.00   0.12     0.01   0.00  -0.04    -0.00  -0.09  -0.00
  90   6    -0.00   0.00   0.11     0.00   0.00  -0.03    -0.00  -0.09   0.00
  91   6    -0.00   0.00   0.11    -0.00   0.00  -0.04    -0.00  -0.09   0.00
  92   7    -0.00  -0.00   0.12    -0.00   0.01  -0.05    -0.00  -0.10  -0.00
  93   6    -0.00   0.00   0.09    -0.00   0.00  -0.04    -0.00  -0.09   0.01
  94   6    -0.00   0.00   0.10    -0.01   0.01  -0.06    -0.00  -0.09   0.01
  95   6     0.00   0.00   0.10    -0.01   0.00  -0.08     0.00  -0.09   0.01
  96   6     0.00   0.00   0.12    -0.01   0.01  -0.08     0.00  -0.09   0.01
  97   6     0.00   0.00   0.13    -0.01   0.01  -0.07     0.00  -0.09   0.00
  98   7    -0.00   0.00   0.12    -0.01   0.01  -0.06    -0.00  -0.10   0.00
  99   6     0.00  -0.00   0.14    -0.01   0.01  -0.06     0.00  -0.09   0.00
 100   6     0.00  -0.00   0.13    -0.00   0.01  -0.05     0.00  -0.09  -0.00
 101   7     0.00  -0.00   0.12     0.00   0.01  -0.05    -0.00  -0.10  -0.01
 102   1     0.00  -0.00   0.04    -0.00   0.00  -0.01     0.00  -0.03   0.00
 103   1     0.00  -0.00   0.03    -0.00   0.01  -0.00     0.00  -0.03  -0.00
 104   1    -0.00  -0.00   0.02     0.00   0.01  -0.02    -0.00  -0.03  -0.01
 105   1    -0.00  -0.00   0.03     0.00   0.00  -0.02    -0.00  -0.03  -0.01
 106   1    -0.00  -0.00   0.04     0.00   0.00  -0.02    -0.00  -0.03  -0.01
 107   1    -0.00   0.00   0.04     0.00   0.00  -0.01    -0.00  -0.03  -0.00
 108   1    -0.00   0.00   0.03     0.00  -0.00  -0.00    -0.00  -0.03   0.00
 109   1     0.00   0.00   0.03    -0.00   0.00  -0.02     0.00  -0.03   0.00
 110   1     0.00   0.00   0.04    -0.00   0.00  -0.03     0.00  -0.03   0.00
 111   1     0.00  -0.00   0.04    -0.00   0.00  -0.02     0.00  -0.03   0.00
                      4                      5                      6
                        a                      a                      a 
 Frequencies --    10.5408                11.2193                13.8548
 Red. masses --    11.8994                11.7081                11.2774
 Frc consts  --     0.0000                 0.0000                 0.0000
 IR Inten    --   170.5754                18.7162                71.9750
 Raman Activ --     0.0000                 0.0000                 0.0000
 Depolar     --     0.0000                 0.0000                 0.0000
 Atom AN      X      Y      Z        X      Y      Z        X      Y      Z
   1  29    -0.00   0.05   0.03     0.01  -0.01  -0.02     0.00  -0.00  -0.01
   2   6    -0.03   0.05   0.15    -0.08  -0.08  -0.03     0.01   0.02   0.04
   3   6    -0.02   0.05   0.16    -0.06  -0.10  -0.02     0.01   0.01   0.01
   4   6    -0.01   0.04   0.13    -0.03  -0.08  -0.01     0.00   0.00  -0.00
   5   6     0.00   0.04   0.14     0.00  -0.09  -0.00    -0.00  -0.00  -0.02
   6   6     0.01   0.04   0.13     0.03  -0.08  -0.02    -0.00  -0.01  -0.04
   7   6     0.03   0.05   0.17     0.06  -0.11  -0.04    -0.00  -0.02  -0.06
   8   6     0.04   0.06   0.15     0.08  -0.09  -0.06    -0.00  -0.03  -0.09
   9   6     0.03   0.05   0.09     0.07  -0.05  -0.05    -0.00  -0.03  -0.08
  10   7     0.02   0.04   0.09     0.04  -0.05  -0.03    -0.00  -0.02  -0.05
  11   6     0.03   0.03   0.04     0.08  -0.02  -0.05    -0.01  -0.05  -0.11
  12   6     0.02   0.01  -0.04     0.07   0.02  -0.03    -0.01  -0.04  -0.10
  13   6     0.02  -0.01  -0.12     0.09   0.06  -0.02    -0.01  -0.05  -0.13
  14   6     0.01  -0.03  -0.20     0.07   0.10   0.01    -0.01  -0.04  -0.08
  15   6     0.00  -0.02  -0.16     0.03   0.08   0.02    -0.00  -0.01  -0.03
  16   7     0.01   0.00  -0.07     0.04   0.04  -0.01    -0.00  -0.02  -0.05
  17   6    -0.01  -0.03  -0.19     0.01   0.11   0.04     0.00   0.01   0.03
  18   6    -0.02  -0.02  -0.14    -0.02   0.09   0.04     0.00   0.03   0.07
  19   6    -0.03  -0.02  -0.16    -0.05   0.11   0.05     0.01   0.05   0.13
  20   6    -0.03   0.00  -0.08    -0.08   0.08   0.03     0.01   0.06   0.15
  21   6    -0.02   0.02  -0.02    -0.06   0.04   0.01     0.01   0.04   0.11
  22   7    -0.02   0.00  -0.06    -0.03   0.05   0.01     0.00   0.02   0.07
  23   6    -0.03   0.04   0.06    -0.08  -0.00  -0.01     0.01   0.04   0.10
  24   6    -0.02   0.04   0.10    -0.06  -0.04  -0.02     0.01   0.02   0.06
  25   7    -0.01   0.04   0.09    -0.03  -0.05  -0.01     0.00   0.01   0.02
  26   1    -0.01   0.02   0.05    -0.03  -0.02  -0.01     0.00   0.01   0.02
  27   1    -0.01   0.02   0.06    -0.02  -0.04  -0.01     0.00   0.00  -0.00
  28   1     0.01   0.02   0.06     0.02  -0.04  -0.01    -0.00  -0.00  -0.01
  29   1     0.01   0.02   0.05     0.03  -0.03  -0.02    -0.00  -0.01  -0.03
  30   1     0.01   0.01   0.01     0.03  -0.01  -0.02    -0.00  -0.02  -0.04
  31   1     0.01  -0.00  -0.04     0.03   0.02  -0.01    -0.00  -0.02  -0.05
  32   1     0.00  -0.02  -0.08     0.02   0.04   0.01    -0.00  -0.01  -0.03
  33   1    -0.00  -0.02  -0.08     0.00   0.04   0.02     0.00   0.00   0.01
  34   1    -0.01  -0.01  -0.06    -0.02   0.04   0.02     0.00   0.02   0.04
  35   1    -0.01   0.00  -0.02    -0.03   0.02   0.01     0.00   0.02   0.06
  36   1    -0.01   0.01   0.02    -0.03  -0.00  -0.01     0.00   0.02   0.04
  37  29    -0.00   0.03  -0.01    -0.01   0.03  -0.04     0.00   0.00   0.00
  38   6    -0.08  -0.02  -0.08     0.03   0.10  -0.14     0.02   0.03  -0.04
  39   6    -0.06  -0.04  -0.09     0.02   0.11  -0.14     0.01   0.01  -0.00
  40   6    -0.03  -0.03  -0.07     0.01   0.09  -0.10     0.01   0.01   0.01
  41   6     0.00  -0.04  -0.08    -0.00   0.09  -0.11    -0.00  -0.00   0.03
  42   6     0.03  -0.03  -0.06    -0.01   0.09  -0.11    -0.00  -0.01   0.04
  43   6     0.06  -0.05  -0.07    -0.02   0.12  -0.14    -0.01  -0.02   0.06
  44   6     0.08  -0.03  -0.04    -0.03   0.10  -0.14    -0.01  -0.03   0.09
  45   6     0.07  -0.01  -0.02    -0.03   0.07  -0.10    -0.01  -0.03   0.08
  46   7     0.04  -0.01  -0.03    -0.02   0.07  -0.09    -0.00  -0.02   0.05
  47   6     0.08   0.00   0.02    -0.04   0.04  -0.06    -0.01  -0.05   0.10
  48   6     0.06   0.02   0.04    -0.03  -0.01   0.01    -0.01  -0.04   0.09
  49   6     0.08   0.04   0.08    -0.04  -0.06   0.08    -0.01  -0.06   0.11
  50   6     0.05   0.05   0.10    -0.04  -0.10   0.15    -0.01  -0.04   0.07
  51   6     0.03   0.05   0.07    -0.02  -0.08   0.12    -0.00  -0.02   0.02
  52   7     0.03   0.03   0.04    -0.02  -0.03   0.05    -0.00  -0.02   0.04
  53   6    -0.00   0.06   0.08    -0.01  -0.11   0.17     0.00   0.01  -0.03
  54   6    -0.03   0.06   0.05     0.00  -0.09   0.13     0.01   0.03  -0.08
  55   6    -0.06   0.07   0.05     0.02  -0.10   0.15     0.01   0.05  -0.13
  56   6    -0.08   0.06   0.02     0.03  -0.06   0.08     0.01   0.06  -0.15
  57   6    -0.07   0.04   0.00     0.02  -0.02   0.02     0.01   0.04  -0.10
  58   7    -0.04   0.04   0.02     0.01  -0.04   0.05     0.01   0.03  -0.07
  59   6    -0.08   0.02  -0.03     0.03   0.03  -0.05     0.01   0.04  -0.10
  60   6    -0.06  -0.00  -0.05     0.03   0.06  -0.09     0.01   0.03  -0.05
  61   7    -0.03  -0.01  -0.05     0.01   0.06  -0.08     0.01   0.01  -0.02
  62   1    -0.03  -0.01  -0.02     0.01   0.03  -0.05     0.01   0.01  -0.02
  63   1    -0.02  -0.02  -0.03     0.01   0.04  -0.05     0.00   0.00   0.01
  64   1     0.02  -0.02  -0.03    -0.01   0.04  -0.05    -0.00  -0.00   0.02
  65   1     0.03  -0.01  -0.01    -0.01   0.03  -0.05    -0.00  -0.01   0.03
  66   1     0.03   0.00   0.01    -0.01   0.01  -0.02    -0.00  -0.02   0.04
  67   1     0.03   0.01   0.03    -0.02  -0.02   0.02    -0.00  -0.02   0.04
  68   1     0.02   0.02   0.04    -0.01  -0.04   0.06    -0.00  -0.01   0.02
  69   1    -0.00   0.02   0.03    -0.00  -0.04   0.07     0.00   0.00  -0.01
  70   1    -0.02   0.03   0.02     0.00  -0.04   0.06     0.00   0.02  -0.05
  71   1    -0.03   0.02   0.00     0.01  -0.02   0.02     0.01   0.02  -0.06
  72   1    -0.03   0.01  -0.01     0.01   0.01  -0.02     0.01   0.02  -0.04
  73   6     0.00   0.03   0.15     0.00  -0.11   0.02    -0.00  -0.00  -0.03
  74   6     0.00   0.02   0.14     0.00  -0.10   0.04    -0.00  -0.00  -0.03
  75   6     0.00  -0.07  -0.12    -0.00   0.09  -0.08    -0.00   0.00   0.04
  76   6     0.00  -0.06  -0.10    -0.00   0.10  -0.10    -0.00   0.00   0.03
  77  29     0.00  -0.07  -0.02     0.00  -0.02   0.06    -0.00  -0.00   0.00
  78   6    -0.04  -0.00   0.03     0.07  -0.06   0.07    -0.00   0.01  -0.24
  79   6    -0.03   0.00   0.09     0.05  -0.08   0.07    -0.00   0.01  -0.18
  80   6    -0.01  -0.00   0.08     0.03  -0.07   0.06    -0.00   0.00  -0.10
  81   6     0.00   0.00   0.11     0.00  -0.08   0.05    -0.00  -0.00  -0.03
  82   6     0.01  -0.00   0.11    -0.02  -0.07   0.06    -0.00  -0.00   0.05
  83   6     0.03  -0.00   0.15    -0.05  -0.09   0.09    -0.01  -0.01   0.12
  84   6     0.04  -0.01   0.13    -0.07  -0.07   0.10    -0.01  -0.01   0.19
  85   6     0.03  -0.02   0.07    -0.06  -0.04   0.08    -0.00  -0.01   0.17
  86   7     0.02  -0.02   0.07    -0.03  -0.04   0.06    -0.00  -0.00   0.09
  87   6     0.03  -0.03   0.02    -0.07  -0.01   0.07    -0.00  -0.00   0.22
  88   6     0.02  -0.04  -0.03    -0.06   0.02   0.03    -0.00  -0.00   0.19
  89   6     0.03  -0.05  -0.07    -0.07   0.04   0.02    -0.00   0.00   0.24
  90   6     0.02  -0.06  -0.10    -0.06   0.06  -0.02    -0.00   0.01   0.18
  91   6     0.01  -0.05  -0.09    -0.03   0.05  -0.03    -0.00   0.00   0.10
  92   7     0.01  -0.05  -0.05    -0.03   0.02   0.01    -0.00  -0.00   0.12
  93   6     0.00  -0.06  -0.11    -0.00   0.06  -0.05    -0.00   0.00   0.03
  94   6    -0.01  -0.05  -0.11     0.03   0.05  -0.04    -0.00  -0.00  -0.05
  95   6    -0.02  -0.06  -0.15     0.05   0.06  -0.06    -0.00  -0.00  -0.12
  96   6    -0.03  -0.05  -0.14     0.07   0.04  -0.03    -0.00  -0.00  -0.19
  97   6    -0.02  -0.04  -0.09     0.06   0.02   0.00    -0.00  -0.00  -0.17
  98   7    -0.01  -0.05  -0.08     0.03   0.02  -0.01    -0.00   0.00  -0.08
  99   6    -0.03  -0.03  -0.06     0.07  -0.01   0.03    -0.00   0.00  -0.22
 100   6    -0.03  -0.02  -0.00     0.06  -0.04   0.05    -0.00   0.00  -0.19
 101   7    -0.01  -0.02   0.03     0.03  -0.04   0.05    -0.00   0.00  -0.11
 102   1    -0.01  -0.00   0.01     0.03  -0.02   0.02    -0.00   0.00  -0.09
 103   1    -0.01   0.00   0.04     0.02  -0.03   0.02    -0.00   0.00  -0.05
 104   1     0.01   0.00   0.06    -0.01  -0.03   0.03    -0.00  -0.00   0.03
 105   1     0.01  -0.00   0.04    -0.03  -0.02   0.03    -0.00  -0.00   0.07
 106   1     0.01  -0.01   0.01    -0.03  -0.00   0.02    -0.00  -0.00   0.09
 107   1     0.01  -0.02  -0.02    -0.03   0.01   0.01    -0.00   0.00   0.09
 108   1     0.01  -0.02  -0.04    -0.02   0.03  -0.01    -0.00   0.00   0.06
 109   1    -0.01  -0.02  -0.05     0.02   0.03  -0.02    -0.00  -0.00  -0.03
 110   1    -0.01  -0.02  -0.05     0.03   0.01  -0.01    -0.00  -0.00  -0.07
 111   1    -0.01  -0.01  -0.02     0.03  -0.00   0.01    -0.00   0.00  -0.08
                      7                      8                      9
                        a                      a                      a 
 Frequencies --    25.4584                30.3364                36.8227
 Red. masses --    13.7616                13.2693                11.7264
 Frc consts  --     0.0000                 0.0000                 0.0000
 IR Inten    --     7.2977                22.5732               105.4336
 Raman Activ --     0.0000                 0.0000                 0.0000
 Depolar     --     0.0000                 0.0000                 0.0000
 Atom AN      X      Y      Z        X      Y      Z        X      Y      Z
   1  29    -0.00   0.00  -0.08    -0.00  -0.07  -0.05     0.08   0.00   0.00
   2   6     0.08   0.03  -0.12    -0.03  -0.09  -0.11     0.04  -0.07  -0.16
   3   6     0.05   0.06  -0.11    -0.02  -0.06  -0.03     0.04  -0.07  -0.17
   4   6     0.03   0.05  -0.09    -0.01  -0.04   0.00     0.03  -0.04  -0.08
   5   6    -0.00   0.07  -0.08    -0.00  -0.02   0.05     0.03  -0.00  -0.01
   6   6    -0.03   0.05  -0.09     0.01  -0.04   0.01     0.03   0.04   0.07
   7   6    -0.06   0.06  -0.11     0.01  -0.06  -0.02     0.04   0.07   0.15
   8   6    -0.08   0.03  -0.12     0.02  -0.09  -0.11     0.04   0.08   0.16
   9   6    -0.07   0.00  -0.10     0.01  -0.08  -0.11     0.04   0.04   0.08
  10   7    -0.04   0.02  -0.09     0.01  -0.06  -0.05     0.04   0.03   0.04
  11   6    -0.08  -0.02  -0.09     0.02  -0.08  -0.14     0.03   0.01   0.01
  12   6    -0.07  -0.03  -0.02     0.01  -0.04  -0.07     0.03  -0.02  -0.07
  13   6    -0.08  -0.04   0.03     0.02  -0.02  -0.03     0.02  -0.06  -0.15
  14   6    -0.06  -0.03   0.10     0.02   0.04   0.08     0.02  -0.06  -0.15
  15   6    -0.03  -0.02   0.09     0.01   0.03   0.09     0.03  -0.03  -0.07
  16   7    -0.04  -0.02   0.01     0.01  -0.01   0.00     0.03  -0.01  -0.04
  17   6     0.00  -0.02   0.14     0.01   0.06   0.15     0.04  -0.00   0.00
  18   6     0.03  -0.02   0.09    -0.00   0.04   0.09     0.04   0.03   0.07
  19   6     0.06  -0.03   0.11    -0.01   0.04   0.09     0.04   0.06   0.16
  20   6     0.08  -0.03   0.04    -0.02  -0.01  -0.02     0.04   0.06   0.16
  21   6     0.06  -0.02  -0.02    -0.02  -0.04  -0.06     0.04   0.02   0.08
  22   7     0.04  -0.02   0.02    -0.01  -0.01   0.00     0.04   0.01   0.05
  23   6     0.08  -0.02  -0.08    -0.02  -0.08  -0.14     0.04  -0.01   0.00
  24   6     0.06   0.01  -0.10    -0.02  -0.08  -0.11     0.04  -0.04  -0.08
  25   7     0.03   0.02  -0.09    -0.01  -0.05  -0.05     0.04  -0.03  -0.04
  26   1     0.03   0.01  -0.04    -0.01  -0.03  -0.05     0.01  -0.03  -0.06
  27   1     0.02   0.02  -0.03    -0.01  -0.02   0.00     0.01  -0.03  -0.06
  28   1    -0.02   0.03  -0.03     0.01  -0.01   0.00     0.01   0.03   0.06
  29   1    -0.03   0.01  -0.04     0.01  -0.03  -0.04     0.01   0.03   0.06
  30   1    -0.03  -0.01  -0.03     0.01  -0.03  -0.06     0.01   0.00   0.00
  31   1    -0.03  -0.01   0.00     0.01  -0.01  -0.02     0.00  -0.02  -0.05
  32   1    -0.02  -0.01   0.05     0.01   0.02   0.04     0.01  -0.02  -0.06
  33   1     0.00  -0.01   0.06     0.00   0.03   0.07     0.01  -0.00  -0.00
  34   1     0.02  -0.01   0.05    -0.00   0.02   0.04     0.01   0.02   0.06
  35   1     0.03  -0.01   0.01    -0.01  -0.01  -0.02     0.01   0.02   0.06
  36   1     0.03  -0.01  -0.03    -0.01  -0.03  -0.06     0.01  -0.00  -0.00
  37  29     0.00  -0.00  -0.08     0.00  -0.08   0.05    -0.08  -0.01   0.00
  38   6    -0.08  -0.03  -0.12    -0.02  -0.10   0.12    -0.04   0.05  -0.11
  39   6    -0.06  -0.06  -0.11    -0.02  -0.07   0.03    -0.04   0.05  -0.12
  40   6    -0.03  -0.05  -0.09    -0.01  -0.04  -0.00    -0.03   0.03  -0.06
  41   6     0.00  -0.07  -0.09     0.00  -0.02  -0.05    -0.03  -0.00  -0.01
  42   6     0.03  -0.05  -0.09     0.01  -0.04  -0.01    -0.03  -0.03   0.05
  43   6     0.06  -0.06  -0.11     0.02  -0.06   0.02    -0.04  -0.07   0.12
  44   6     0.09  -0.02  -0.12     0.02  -0.09   0.10    -0.04  -0.07   0.12
  45   6     0.07  -0.00  -0.10     0.02  -0.08   0.11    -0.03  -0.04   0.06
  46   7     0.04  -0.02  -0.09     0.01  -0.06   0.05    -0.03  -0.02   0.03
  47   6     0.08   0.02  -0.08     0.02  -0.09   0.14    -0.03  -0.01   0.01
  48   6     0.07   0.03  -0.02     0.02  -0.05   0.07    -0.03   0.02  -0.05
  49   6     0.08   0.03   0.03     0.02  -0.02   0.03    -0.03   0.05  -0.11
  50   6     0.06   0.02   0.11     0.02   0.04  -0.08    -0.03   0.06  -0.12
  51   6     0.03   0.01   0.09     0.01   0.04  -0.09    -0.03   0.03  -0.06
  52   7     0.04   0.02   0.02     0.01  -0.01  -0.00    -0.04   0.01  -0.03
  53   6    -0.00   0.01   0.14     0.01   0.08  -0.16    -0.04   0.01  -0.01
  54   6    -0.03   0.01   0.09    -0.00   0.04  -0.10    -0.04  -0.02   0.04
  55   6    -0.06   0.02   0.11    -0.01   0.05  -0.10    -0.04  -0.05   0.11
  56   6    -0.08   0.03   0.04    -0.02  -0.01   0.01    -0.04  -0.05   0.12
  57   6    -0.06   0.02  -0.02    -0.02  -0.04   0.06    -0.04  -0.03   0.06
  58   7    -0.04   0.01   0.02    -0.01  -0.01  -0.01    -0.04  -0.01   0.03
  59   6    -0.08   0.02  -0.08    -0.02  -0.09   0.14    -0.04  -0.00   0.02
  60   6    -0.06  -0.00  -0.10    -0.02  -0.09   0.11    -0.04   0.02  -0.04
  61   7    -0.03  -0.02  -0.09    -0.01  -0.06   0.05    -0.03   0.02  -0.03
  62   1    -0.03  -0.01  -0.04    -0.01  -0.04   0.05    -0.01   0.02  -0.04
  63   1    -0.02  -0.02  -0.03    -0.01  -0.02   0.00    -0.01   0.02  -0.05
  64   1     0.02  -0.02  -0.03     0.01  -0.01  -0.00    -0.01  -0.02   0.04
  65   1     0.03  -0.01  -0.04     0.01  -0.03   0.04    -0.01  -0.03   0.05
  66   1     0.03   0.01  -0.03     0.01  -0.03   0.06    -0.01  -0.01   0.00
  67   1     0.03   0.01   0.01     0.01  -0.01   0.02    -0.01   0.02  -0.04
  68   1     0.02   0.01   0.05     0.01   0.02  -0.04    -0.01   0.02  -0.04
  69   1    -0.00   0.00   0.06     0.00   0.03  -0.07    -0.01   0.00  -0.01
  70   1    -0.02   0.01   0.05    -0.00   0.03  -0.05    -0.01  -0.02   0.04
  71   1    -0.03   0.01   0.01    -0.01  -0.01   0.01    -0.01  -0.02   0.05
  72   1    -0.03   0.01  -0.03    -0.01  -0.03   0.06    -0.01  -0.00   0.01
  73   6    -0.00   0.10  -0.07    -0.00   0.00   0.11     0.02  -0.00  -0.01
  74   6    -0.00   0.09  -0.05    -0.00   0.05   0.14     0.02  -0.01  -0.01
  75   6     0.00  -0.09  -0.06     0.00   0.05  -0.14    -0.02   0.01  -0.01
  76   6     0.00  -0.09  -0.08     0.00   0.01  -0.11    -0.02   0.00  -0.01
  77  29     0.00  -0.00   0.18     0.00   0.14   0.00     0.00   0.00  -0.00
  78   6    -0.06   0.05   0.09    -0.00   0.06   0.11     0.01   0.00  -0.18
  79   6    -0.04   0.07   0.03    -0.00   0.06   0.15     0.02   0.01  -0.19
  80   6    -0.02   0.06   0.02    -0.00   0.06   0.12     0.02   0.00  -0.09
  81   6    -0.00   0.07  -0.01    -0.00   0.06   0.13     0.02  -0.00  -0.01
  82   6     0.02   0.06   0.02    -0.00   0.06   0.11     0.02  -0.01   0.08
  83   6     0.04   0.07   0.02     0.00   0.06   0.14     0.01  -0.02   0.19
  84   6     0.06   0.05   0.09     0.00   0.06   0.11     0.00  -0.01   0.19
  85   6     0.05   0.02   0.11     0.00   0.06   0.06     0.00   0.00   0.09
  86   7     0.03   0.03   0.08    -0.00   0.06   0.07     0.01   0.00   0.04
  87   6     0.07  -0.00   0.15    -0.00   0.06   0.01    -0.01   0.01   0.00
  88   6     0.05  -0.03   0.11    -0.00   0.06  -0.05    -0.01   0.01  -0.09
  89   6     0.06  -0.05   0.09    -0.00   0.06  -0.10    -0.01   0.00  -0.19
  90   6     0.04  -0.07   0.02    -0.00   0.06  -0.13    -0.02  -0.00  -0.19
  91   6     0.02  -0.05   0.02    -0.00   0.06  -0.11    -0.02   0.00  -0.09
  92   7     0.03  -0.03   0.08     0.00   0.07  -0.07    -0.02   0.01  -0.05
  93   6     0.00  -0.07  -0.02     0.00   0.06  -0.13    -0.02   0.01  -0.01
  94   6    -0.02  -0.06   0.01     0.00   0.06  -0.12    -0.02   0.01   0.09
  95   6    -0.04  -0.07   0.01     0.00   0.06  -0.15    -0.01   0.02   0.19
  96   6    -0.06  -0.05   0.08     0.00   0.06  -0.12    -0.00   0.01   0.20
  97   6    -0.05  -0.03   0.10     0.00   0.06  -0.06    -0.00  -0.00   0.10
  98   7    -0.03  -0.03   0.07     0.00   0.07  -0.08    -0.01  -0.00   0.05
  99   6    -0.06  -0.00   0.14     0.00   0.06  -0.00     0.01  -0.01   0.02
 100   6    -0.05   0.02   0.11    -0.00   0.06   0.06     0.01  -0.01  -0.08
 101   7    -0.03   0.03   0.08     0.00   0.06   0.07     0.02  -0.01  -0.04
 102   1    -0.02   0.01   0.03    -0.00   0.02   0.03     0.00   0.00  -0.07
 103   1    -0.01   0.02  -0.00    -0.00   0.02   0.05     0.01   0.01  -0.07
 104   1     0.01   0.03  -0.01     0.00   0.02   0.05     0.00  -0.01   0.07
 105   1     0.02   0.01   0.03     0.00   0.02   0.03    -0.00  -0.00   0.07
 106   1     0.03  -0.00   0.05    -0.00   0.02   0.00    -0.00   0.00   0.00
 107   1     0.02  -0.01   0.03    -0.00   0.02  -0.03    -0.00   0.00  -0.07
 108   1     0.01  -0.02  -0.01    -0.00   0.02  -0.05    -0.01  -0.00  -0.07
 109   1    -0.01  -0.03  -0.01     0.00   0.02  -0.05    -0.00   0.01   0.07
 110   1    -0.02  -0.01   0.03     0.00   0.02  -0.04     0.00   0.00   0.08
 111   1    -0.03  -0.00   0.05     0.00   0.02  -0.00     0.00  -0.00   0.01
                     10                     11                     12
                        a                      a                      a 
 Frequencies --    40.9582                42.2589                43.0037
 Red. masses --    11.7598                11.0548                16.7839
 Frc consts  --     0.0000                 0.0000                 0.0000
 IR Inten    --     7.4941               116.3759                59.7346
 Raman Activ --     0.0000                 0.0000                 0.0000
 Depolar     --     0.0000                 0.0000                 0.0000
 Atom AN      X      Y      Z        X      Y      Z        X      Y      Z
   1  29    -0.07  -0.03   0.01     0.02   0.01   0.00     0.22  -0.01  -0.00
   2   6    -0.06  -0.08  -0.09     0.01  -0.08  -0.19     0.09   0.03   0.11
   3   6    -0.05  -0.04   0.02     0.01  -0.07  -0.17     0.08   0.05   0.14
   4   6    -0.03  -0.01   0.07     0.01  -0.03  -0.08     0.07   0.02   0.08
   5   6    -0.02   0.02   0.14     0.01   0.01   0.00     0.06   0.00   0.04
   6   6    -0.01   0.00   0.10     0.01   0.04   0.08     0.08  -0.02  -0.03
   7   6    -0.00  -0.01   0.09     0.01   0.08   0.17     0.09  -0.06  -0.10
   8   6    -0.00  -0.05  -0.02     0.01   0.09   0.17     0.10  -0.07  -0.14
   9   6    -0.01  -0.06  -0.06     0.01   0.05   0.09     0.09  -0.03  -0.09
  10   7    -0.02  -0.03   0.02     0.01   0.03   0.05     0.09  -0.01  -0.04
  11   6    -0.01  -0.08  -0.14     0.00   0.01   0.02     0.10  -0.01  -0.06
  12   6    -0.01  -0.05  -0.10    -0.00  -0.02  -0.06     0.11   0.02   0.02
  13   6    -0.00  -0.04  -0.10    -0.01  -0.06  -0.15     0.11   0.04   0.09
  14   6    -0.01   0.02   0.01    -0.01  -0.06  -0.15     0.11   0.05   0.13
  15   6    -0.02   0.03   0.06    -0.00  -0.03  -0.07     0.11   0.03   0.07
  16   7    -0.02  -0.01  -0.01     0.00  -0.01  -0.04     0.12   0.02   0.02
  17   6    -0.03   0.07   0.13     0.00   0.00   0.01     0.11   0.02   0.04
  18   6    -0.04   0.04   0.08     0.01   0.03   0.08     0.10  -0.01  -0.03
  19   6    -0.05   0.04   0.07     0.01   0.06   0.16     0.09  -0.04  -0.10
  20   6    -0.06  -0.01  -0.04     0.01   0.06   0.15     0.08  -0.05  -0.13
  21   6    -0.05  -0.03  -0.07     0.01   0.02   0.06     0.09  -0.04  -0.07
  22   7    -0.04   0.00   0.00     0.01   0.01   0.04     0.11  -0.02  -0.03
  23   6    -0.06  -0.07  -0.15     0.01  -0.01  -0.03     0.09  -0.04  -0.03
  24   6    -0.05  -0.06  -0.10     0.01  -0.04  -0.10     0.09  -0.01   0.04
  25   7    -0.04  -0.03  -0.00     0.01  -0.02  -0.05     0.08  -0.01   0.04
  26   1    -0.02  -0.03  -0.05     0.00  -0.03  -0.07     0.03   0.01   0.04
  27   1    -0.01  -0.01   0.02     0.00  -0.03  -0.06     0.02   0.02   0.05
  28   1     0.00   0.00   0.04     0.00   0.03   0.06     0.03  -0.02  -0.03
  29   1     0.00  -0.02  -0.02     0.00   0.03   0.07     0.03  -0.03  -0.06
  30   1     0.00  -0.03  -0.06     0.00   0.00   0.01     0.03  -0.01  -0.02
  31   1     0.00  -0.02  -0.05    -0.00  -0.02  -0.06     0.03   0.01   0.03
  32   1    -0.00   0.01   0.01    -0.00  -0.02  -0.06     0.03   0.02   0.05
  33   1    -0.01   0.03   0.06     0.00   0.00   0.00     0.03   0.01   0.02
  34   1    -0.01   0.02   0.04     0.00   0.02   0.06     0.03  -0.01  -0.04
  35   1    -0.02  -0.01  -0.02     0.00   0.02   0.05     0.02  -0.02  -0.05
  36   1    -0.02  -0.03  -0.06     0.00  -0.01  -0.01     0.02  -0.01  -0.01
  37  29     0.07   0.04   0.01    -0.03   0.01  -0.00    -0.22   0.01  -0.00
  38   6     0.06   0.09  -0.09    -0.01  -0.10   0.22    -0.09  -0.01   0.07
  39   6     0.05   0.05   0.02    -0.01  -0.10   0.22    -0.09  -0.03   0.09
  40   6     0.03   0.01   0.07    -0.01  -0.04   0.11    -0.08  -0.01   0.06
  41   6     0.02  -0.02   0.14    -0.00   0.00   0.01    -0.06  -0.01   0.04
  42   6     0.01  -0.00   0.10    -0.01   0.06  -0.09    -0.08   0.01  -0.01
  43   6     0.00   0.01   0.09    -0.01   0.12  -0.20    -0.09   0.04  -0.06
  44   6    -0.00   0.05  -0.01    -0.01   0.12  -0.22    -0.10   0.05  -0.09
  45   6     0.01   0.06  -0.05    -0.01   0.06  -0.12    -0.09   0.02  -0.06
  46   7     0.02   0.03   0.02    -0.01   0.04  -0.06    -0.09  -0.00  -0.02
  47   6     0.00   0.09  -0.13    -0.02   0.02  -0.03    -0.10   0.01  -0.05
  48   6     0.01   0.06  -0.10    -0.02  -0.04   0.07    -0.10  -0.02   0.00
  49   6     0.00   0.04  -0.10    -0.03  -0.09   0.18    -0.10  -0.03   0.05
  50   6     0.01  -0.02  -0.00    -0.03  -0.10   0.20    -0.11  -0.04   0.09
  51   6     0.02  -0.03   0.05    -0.02  -0.05   0.10    -0.11  -0.03   0.05
  52   7     0.02   0.01  -0.01    -0.02  -0.02   0.05    -0.11  -0.02   0.01
  53   6     0.03  -0.07   0.12    -0.02  -0.01   0.01    -0.11  -0.02   0.04
  54   6     0.04  -0.05   0.08    -0.01   0.04  -0.09    -0.10   0.01  -0.01
  55   6     0.05  -0.05   0.07    -0.01   0.09  -0.20    -0.09   0.03  -0.06
  56   6     0.06   0.00  -0.03    -0.00   0.09  -0.20    -0.08   0.05  -0.09
  57   6     0.05   0.03  -0.07    -0.01   0.04  -0.09    -0.09   0.04  -0.05
  58   7     0.05  -0.00   0.00    -0.01   0.02  -0.05    -0.11   0.02  -0.02
  59   6     0.06   0.07  -0.14    -0.01   0.00   0.01    -0.09   0.04  -0.03
  60   6     0.05   0.07  -0.09    -0.01  -0.04   0.11    -0.09   0.02   0.02
  61   7     0.04   0.03  -0.00    -0.01  -0.02   0.07    -0.09   0.02   0.03
  62   1     0.02   0.03  -0.05    -0.00  -0.04   0.08    -0.03  -0.01   0.02
  63   1     0.02   0.01   0.02    -0.00  -0.04   0.08    -0.02  -0.02   0.04
  64   1    -0.00  -0.00   0.04    -0.00   0.04  -0.07    -0.03   0.02  -0.02
  65   1    -0.00   0.02  -0.02    -0.00   0.05  -0.09    -0.03   0.02  -0.04
  66   1    -0.00   0.03  -0.06    -0.01   0.01  -0.01    -0.03   0.00  -0.02
  67   1    -0.00   0.02  -0.05    -0.01  -0.03   0.07    -0.03  -0.01   0.02
  68   1     0.00  -0.01   0.01    -0.01  -0.04   0.08    -0.03  -0.02   0.04
  69   1     0.01  -0.03   0.05    -0.01  -0.00   0.00    -0.03  -0.01   0.02
  70   1     0.01  -0.03   0.04    -0.00   0.03  -0.07    -0.03   0.01  -0.02
  71   1     0.02   0.01  -0.02     0.00   0.03  -0.07    -0.02   0.02  -0.04
  72   1     0.02   0.03  -0.06    -0.00  -0.00   0.00    -0.02   0.01  -0.01
  73   6    -0.02   0.04   0.19     0.01   0.01   0.01     0.06   0.01   0.05
  74   6    -0.02   0.07   0.18     0.01   0.00   0.01     0.06   0.03   0.05
  75   6     0.02  -0.08   0.18    -0.00  -0.01   0.01    -0.06  -0.03   0.05
  76   6     0.02  -0.04   0.19    -0.00   0.00   0.01    -0.06  -0.02   0.05
  77  29    -0.00  -0.00  -0.00     0.01  -0.01   0.00    -0.00   0.00   0.00
  78   6    -0.07   0.05  -0.08     0.00  -0.00   0.05    -0.02   0.02  -0.11
  79   6    -0.05   0.06   0.03     0.01  -0.00   0.03     0.00   0.04  -0.07
  80   6    -0.03   0.05   0.07     0.01  -0.00   0.02     0.03   0.02  -0.02
  81   6    -0.02   0.06   0.13     0.01  -0.00   0.01     0.05   0.02   0.03
  82   6     0.01   0.05   0.07     0.01  -0.00  -0.01     0.04   0.02   0.05
  83   6     0.04   0.07   0.03     0.01  -0.00  -0.03     0.03   0.01   0.08
  84   6     0.06   0.05  -0.08     0.01   0.00  -0.06     0.02   0.02   0.06
  85   6     0.05   0.02  -0.09     0.01  -0.00  -0.05     0.03   0.04   0.02
  86   7     0.02   0.02  -0.00     0.01  -0.00  -0.03     0.04   0.03   0.02
  87   6     0.06  -0.01  -0.16     0.01  -0.00  -0.06     0.02   0.04  -0.03
  88   6     0.05  -0.03  -0.10     0.01  -0.00  -0.04     0.01   0.02  -0.06
  89   6     0.06  -0.05  -0.09     0.01  -0.01  -0.02     0.02  -0.01  -0.10
  90   6     0.05  -0.07   0.02     0.01  -0.01   0.00    -0.00  -0.03  -0.07
  91   6     0.03  -0.06   0.06     0.00  -0.01   0.00    -0.03  -0.01  -0.02
  92   7     0.03  -0.04  -0.01     0.00  -0.01  -0.02    -0.03   0.01  -0.02
  93   6     0.02  -0.07   0.12    -0.00  -0.01   0.01    -0.05  -0.02   0.03
  94   6    -0.01  -0.05   0.07    -0.00  -0.01   0.01    -0.05  -0.02   0.05
  95   6    -0.04  -0.07   0.03     0.00  -0.01  -0.00    -0.03  -0.01   0.08
  96   6    -0.06  -0.05  -0.09     0.00  -0.01   0.01    -0.03  -0.02   0.05
  97   6    -0.05  -0.02  -0.10     0.00  -0.01   0.03    -0.03  -0.03   0.00
  98   7    -0.02  -0.02  -0.01    -0.00  -0.01   0.02    -0.05  -0.03   0.01
  99   6    -0.06   0.01  -0.16     0.00  -0.01   0.05    -0.02  -0.04  -0.05
 100   6    -0.05   0.03  -0.10     0.00  -0.01   0.05    -0.01  -0.01  -0.07
 101   7    -0.04   0.03  -0.00     0.01  -0.00   0.03     0.03  -0.01  -0.03
 102   1    -0.02   0.02  -0.04     0.00  -0.00   0.02    -0.01   0.01  -0.04
 103   1    -0.02   0.02   0.02     0.00  -0.00   0.01    -0.00   0.02  -0.02
 104   1     0.01   0.03   0.02     0.00   0.00  -0.00     0.01   0.00   0.03
 105   1     0.03   0.02  -0.04     0.00   0.00  -0.02     0.01   0.01   0.02
 106   1     0.02  -0.00  -0.07     0.00   0.00  -0.02     0.01   0.01  -0.02
 107   1     0.02  -0.02  -0.05     0.00  -0.00  -0.01     0.01  -0.00  -0.04
 108   1     0.02  -0.02   0.02     0.00  -0.00   0.01     0.00  -0.02  -0.02
 109   1    -0.01  -0.03   0.02     0.00  -0.00  -0.01    -0.01  -0.00   0.03
 110   1    -0.03  -0.02  -0.04     0.00  -0.00   0.00    -0.01  -0.01   0.01
 111   1    -0.02   0.00  -0.07    -0.00  -0.00   0.02    -0.01  -0.01  -0.02
                     13                     14                     15
                        a                      a                      a 
 Frequencies --    52.0004                52.2878                65.6921
 Red. masses --    13.6253                15.0333                15.0672
 Frc consts  --     0.0000                 0.0000                 0.0000
 IR Inten    --    44.8579                 6.0433               272.3059
 Raman Activ --     0.0000                 0.0000                 0.0000
 Depolar     --     0.0000                 0.0000                 0.0000
 Atom AN      X      Y      Z        X      Y      Z        X      Y      Z
   1  29     0.15  -0.00   0.01    -0.00  -0.09   0.06     0.00  -0.09  -0.17
   2   6     0.06  -0.06  -0.10    -0.09  -0.11   0.03    -0.00   0.01   0.03
   3   6     0.06  -0.04  -0.08    -0.06  -0.14   0.02    -0.00  -0.05  -0.09
   4   6     0.05  -0.03  -0.03    -0.03  -0.12   0.03    -0.00  -0.07  -0.14
   5   6     0.04  -0.00   0.01    -0.00  -0.13   0.04    -0.00  -0.08  -0.17
   6   6     0.05   0.02   0.04     0.02  -0.11   0.04    -0.00  -0.07  -0.14
   7   6     0.06   0.03   0.08     0.06  -0.13   0.04     0.00  -0.05  -0.09
   8   6     0.07   0.05   0.10     0.09  -0.10   0.05     0.01   0.01   0.03
   9   6     0.06   0.04   0.06     0.07  -0.06   0.05     0.01   0.01   0.04
  10   7     0.06   0.03   0.04     0.03  -0.08   0.05    -0.00  -0.05  -0.08
  11   6     0.06   0.03   0.03     0.09  -0.02   0.05     0.01   0.06   0.15
  12   6     0.06   0.00  -0.02     0.07   0.00   0.02     0.01   0.04   0.11
  13   6     0.06  -0.02  -0.07     0.09   0.03  -0.01     0.02   0.06   0.16
  14   6     0.06  -0.03  -0.08     0.06   0.04  -0.05     0.01   0.01   0.03
  15   6     0.07  -0.01  -0.04     0.03   0.02  -0.04     0.00  -0.03  -0.07
  16   7     0.07   0.01  -0.01     0.04  -0.00   0.00     0.01  -0.02  -0.02
  17   6     0.07   0.00  -0.00    -0.00   0.03  -0.06    -0.00  -0.06  -0.13
  18   6     0.07   0.01   0.04    -0.04   0.02  -0.04    -0.00  -0.03  -0.07
  19   6     0.06   0.03   0.08    -0.07   0.04  -0.03    -0.00   0.01   0.03
  20   6     0.06   0.02   0.06    -0.09   0.03   0.01     0.00   0.06   0.17
  21   6     0.06  -0.01   0.02    -0.08   0.00   0.03     0.00   0.04   0.12
  22   7     0.07  -0.01   0.01    -0.04  -0.00   0.00     0.00  -0.01  -0.02
  23   6     0.06  -0.03  -0.03    -0.09  -0.02   0.05    -0.00   0.06   0.16
  24   6     0.06  -0.04  -0.06    -0.07  -0.07   0.04    -0.00   0.01   0.04
  25   7     0.06  -0.03  -0.03    -0.04  -0.08   0.04    -0.00  -0.04  -0.08
  26   1     0.02  -0.02  -0.04    -0.03  -0.03   0.01    -0.00   0.01   0.03
  27   1     0.02  -0.01  -0.02    -0.02  -0.05   0.00    -0.00  -0.02  -0.04
  28   1     0.02   0.01   0.02     0.02  -0.05   0.01    -0.00  -0.02  -0.03
  29   1     0.02   0.02   0.04     0.03  -0.03   0.02     0.00   0.01   0.03
  30   1     0.02   0.01   0.01     0.04  -0.00   0.02     0.00   0.03   0.08
  31   1     0.02  -0.01  -0.03     0.03   0.01   0.00     0.01   0.03   0.08
  32   1     0.02  -0.01  -0.03     0.02   0.02  -0.02     0.00   0.00   0.00
  33   1     0.02   0.00  -0.00    -0.00   0.01  -0.03    -0.00  -0.02  -0.05
  34   1     0.02   0.01   0.03    -0.02   0.02  -0.02    -0.00   0.00   0.00
  35   1     0.02   0.01   0.02    -0.04   0.01   0.01     0.00   0.03   0.08
  36   1     0.02  -0.01  -0.01    -0.04  -0.01   0.02     0.00   0.03   0.08
  37  29    -0.15  -0.00   0.00     0.01  -0.09  -0.06     0.00  -0.09   0.16
  38   6    -0.06   0.06  -0.11    -0.08  -0.10  -0.04     0.00   0.01  -0.03
  39   6    -0.06   0.05  -0.09    -0.06  -0.14  -0.03     0.00  -0.04   0.09
  40   6    -0.05   0.02  -0.04    -0.02  -0.11  -0.03    -0.00  -0.07   0.13
  41   6    -0.04  -0.00   0.01     0.00  -0.13  -0.04    -0.00  -0.08   0.17
  42   6    -0.05  -0.03   0.05     0.03  -0.11  -0.04    -0.00  -0.07   0.13
  43   6    -0.06  -0.05   0.10     0.06  -0.13  -0.05    -0.00  -0.04   0.08
  44   6    -0.07  -0.06   0.11     0.09  -0.09  -0.06     0.00   0.01  -0.03
  45   6    -0.06  -0.05   0.06     0.07  -0.05  -0.06     0.00   0.02  -0.04
  46   7    -0.06  -0.03   0.04     0.04  -0.07  -0.05    -0.00  -0.04   0.08
  47   6    -0.06  -0.03   0.02     0.09  -0.02  -0.06     0.01   0.07  -0.14
  48   6    -0.06   0.00  -0.03     0.07   0.00  -0.02     0.01   0.05  -0.11
  49   6    -0.06   0.03  -0.08     0.09   0.03   0.01     0.01   0.07  -0.15
  50   6    -0.06   0.04  -0.09     0.07   0.03   0.05     0.01   0.01  -0.03
  51   6    -0.07   0.02  -0.04     0.03   0.02   0.05     0.00  -0.04   0.06
  52   7    -0.07  -0.00  -0.02     0.04  -0.00   0.00     0.00  -0.02   0.02
  53   6    -0.07   0.00   0.00     0.00   0.02   0.07    -0.00  -0.06   0.12
  54   6    -0.07  -0.02   0.04    -0.03   0.02   0.04     0.00  -0.03   0.06
  55   6    -0.07  -0.04   0.08    -0.06   0.04   0.03     0.00   0.01  -0.03
  56   6    -0.06  -0.03   0.07    -0.09   0.03  -0.01     0.01   0.07  -0.15
  57   6    -0.06   0.00   0.02    -0.07   0.01  -0.03     0.00   0.05  -0.11
  58   7    -0.07   0.00   0.01    -0.04  -0.00  -0.00     0.00  -0.01   0.02
  59   6    -0.06   0.03  -0.03    -0.08  -0.02  -0.05     0.00   0.06  -0.15
  60   6    -0.06   0.05  -0.07    -0.06  -0.06  -0.05     0.00   0.02  -0.04
  61   7    -0.06   0.03  -0.03    -0.03  -0.08  -0.04    -0.00  -0.04   0.08
  62   1    -0.02   0.02  -0.04    -0.03  -0.03  -0.01     0.00   0.01  -0.03
  63   1    -0.02   0.01  -0.03    -0.02  -0.05  -0.00     0.00  -0.02   0.04
  64   1    -0.02  -0.02   0.03     0.02  -0.05  -0.01    -0.00  -0.02   0.03
  65   1    -0.02  -0.02   0.04     0.03  -0.03  -0.02     0.00   0.01  -0.03
  66   1    -0.02  -0.01   0.01     0.04  -0.00  -0.02     0.00   0.03  -0.07
  67   1    -0.01   0.01  -0.03     0.04   0.01  -0.00     0.00   0.03  -0.07
  68   1    -0.02   0.02  -0.03     0.02   0.01   0.03     0.00  -0.00  -0.00
  69   1    -0.02  -0.00   0.00     0.00   0.01   0.03    -0.00  -0.02   0.05
  70   1    -0.02  -0.02   0.03    -0.02   0.02   0.02     0.00   0.00  -0.00
  71   1    -0.02  -0.01   0.03    -0.03   0.01  -0.01     0.00   0.03  -0.07
  72   1    -0.02   0.01  -0.01    -0.03  -0.00  -0.02     0.00   0.03  -0.07
  73   6     0.04  -0.00   0.01    -0.00  -0.12   0.03    -0.00  -0.06  -0.13
  74   6     0.04   0.01   0.01    -0.00   0.04  -0.03    -0.00   0.02  -0.03
  75   6    -0.04  -0.01   0.01     0.00   0.03   0.03    -0.00   0.00   0.03
  76   6    -0.04  -0.00   0.01     0.00  -0.12  -0.03    -0.00  -0.06   0.13
  77  29    -0.00   0.00  -0.00    -0.00   0.21   0.00    -0.01   0.07   0.00
  78   6    -0.01  -0.01   0.21     0.00   0.09  -0.11    -0.01   0.03   0.13
  79   6     0.00   0.00   0.21     0.00   0.09  -0.12    -0.01   0.03   0.12
  80   6     0.02  -0.00   0.10     0.01   0.08  -0.08    -0.00   0.03   0.07
  81   6     0.03   0.01   0.00    -0.00   0.08  -0.06    -0.00   0.03   0.04
  82   6     0.03   0.01  -0.10    -0.01   0.08  -0.07    -0.00   0.03   0.07
  83   6     0.01   0.01  -0.21    -0.01   0.09  -0.11     0.00   0.03   0.12
  84   6     0.00   0.02  -0.22    -0.01   0.08  -0.11     0.00   0.02   0.13
  85   6     0.01   0.03  -0.11    -0.00   0.08  -0.06     0.00   0.03   0.08
  86   7     0.03   0.02  -0.06    -0.01   0.09  -0.06    -0.00   0.03   0.06
  87   6     0.00   0.03  -0.01     0.00   0.08  -0.00     0.00   0.02   0.01
  88   6     0.00   0.02   0.10     0.00   0.08   0.06    -0.00   0.02  -0.07
  89   6     0.01   0.01   0.22     0.01   0.08   0.11    -0.00   0.02  -0.13
  90   6    -0.00  -0.01   0.22     0.01   0.08   0.12    -0.00   0.02  -0.12
  91   6    -0.02   0.00   0.10     0.01   0.08   0.08    -0.00   0.02  -0.07
  92   7    -0.02   0.01   0.06     0.01   0.08   0.06    -0.00   0.03  -0.06
  93   6    -0.03  -0.00   0.01     0.00   0.07   0.07    -0.00   0.02  -0.04
  94   6    -0.03  -0.01  -0.09    -0.01   0.08   0.08    -0.01   0.02  -0.07
  95   6    -0.01  -0.00  -0.21    -0.01   0.08   0.12    -0.01   0.02  -0.12
  96   6    -0.00  -0.01  -0.22    -0.01   0.08   0.11    -0.01   0.02  -0.13
  97   6    -0.01  -0.02  -0.11    -0.01   0.08   0.06    -0.01   0.02  -0.07
  98   7    -0.03  -0.02  -0.06    -0.01   0.09   0.06    -0.01   0.02  -0.06
  99   6    -0.00  -0.03  -0.01    -0.00   0.08   0.00    -0.01   0.02  -0.00
 100   6     0.00  -0.02   0.09     0.00   0.08  -0.06    -0.01   0.03   0.07
 101   7     0.02  -0.01   0.05     0.00   0.09  -0.05    -0.00   0.03   0.06
 102   1    -0.01  -0.00   0.08     0.00   0.03  -0.04    -0.00   0.01   0.05
 103   1    -0.00   0.00   0.08     0.00   0.03  -0.04    -0.00   0.01   0.04
 104   1     0.00   0.00  -0.08    -0.00   0.03  -0.04     0.00   0.01   0.04
 105   1    -0.00   0.01  -0.09    -0.00   0.02  -0.04     0.00   0.01   0.05
 106   1     0.00   0.01  -0.00     0.00   0.02  -0.00     0.00   0.01   0.00
 107   1     0.01   0.00   0.08     0.00   0.02   0.04    -0.00   0.01  -0.05
 108   1     0.00  -0.00   0.08     0.00   0.02   0.04    -0.00   0.00  -0.04
 109   1    -0.00   0.00  -0.07    -0.00   0.02   0.04    -0.00   0.00  -0.04
 110   1     0.00  -0.00  -0.08    -0.00   0.02   0.04    -0.00   0.01  -0.05
 111   1    -0.00  -0.01  -0.00    -0.00   0.02  -0.00    -0.00   0.01   0.00
                     16                     17                     18
                        a                      a                      a 
 Frequencies --    68.3513                74.8866                83.9943
 Red. masses --    13.3132                24.1029                32.9048
 Frc consts  --     0.0000                 0.0000                 0.0000
 IR Inten    --     0.3238                 9.2342                24.8874
 Raman Activ --     0.0000                 0.0000                 0.0000
 Depolar     --     0.0000                 0.0000                 0.0000
 Atom AN      X      Y      Z        X      Y      Z        X      Y      Z
   1  29     0.01   0.12   0.06     0.00   0.04   0.16     0.01   0.14   0.37
   2   6     0.05   0.07  -0.03    -0.02  -0.03  -0.01    -0.00  -0.06  -0.12
   3   6     0.04   0.11   0.02    -0.01  -0.02   0.05     0.00  -0.07  -0.12
   4   6     0.01   0.10   0.04    -0.00   0.00   0.07     0.00  -0.01  -0.00
   5   6     0.00   0.11   0.05     0.00  -0.00   0.08     0.00  -0.02  -0.01
   6   6    -0.01   0.10   0.04     0.01   0.00   0.07     0.00  -0.01  -0.00
   7   6    -0.03   0.10   0.02     0.01  -0.02   0.04    -0.00  -0.07  -0.12
   8   6    -0.05   0.06  -0.04     0.02  -0.03  -0.01    -0.00  -0.06  -0.12
   9   6    -0.04   0.04  -0.04     0.01  -0.02  -0.00     0.00  -0.01   0.00
  10   7    -0.02   0.07   0.02     0.01   0.00   0.06     0.00   0.03   0.08
  11   6    -0.06  -0.01  -0.09     0.02  -0.04  -0.07     0.01  -0.00  -0.00
  12   6    -0.05  -0.02  -0.06     0.01  -0.03  -0.06     0.00   0.01   0.01
  13   6    -0.06  -0.05  -0.08     0.01  -0.04  -0.11    -0.00  -0.04  -0.11
  14   6    -0.04  -0.03   0.00     0.01  -0.00  -0.04    -0.00  -0.05  -0.12
  15   6    -0.02   0.00   0.05     0.01   0.02   0.04    -0.00   0.00  -0.01
  16   7    -0.02   0.01   0.01     0.01   0.01   0.03     0.00   0.04   0.09
  17   6     0.00   0.00   0.09     0.00   0.04   0.07    -0.00  -0.01  -0.03
  18   6     0.02  -0.00   0.05    -0.01   0.02   0.04    -0.00  -0.00  -0.01
  19   6     0.04  -0.03  -0.00    -0.02  -0.00  -0.04    -0.01  -0.05  -0.13
  20   6     0.06  -0.05  -0.08    -0.02  -0.04  -0.11    -0.01  -0.04  -0.11
  21   6     0.05  -0.02  -0.06    -0.02  -0.03  -0.06    -0.00   0.01   0.01
  22   7     0.03   0.01   0.01    -0.01   0.01   0.03    -0.00   0.04   0.09
  23   6     0.06  -0.00  -0.09    -0.02  -0.04  -0.08    -0.00  -0.00  -0.00
  24   6     0.04   0.04  -0.04    -0.01  -0.02  -0.01    -0.00  -0.01   0.00
  25   7     0.02   0.07   0.02    -0.01   0.00   0.06     0.00   0.03   0.08
  26   1     0.02   0.02  -0.02    -0.01  -0.01  -0.01    -0.00  -0.03  -0.06
  27   1     0.01   0.04   0.01    -0.00  -0.01   0.02     0.00  -0.03  -0.06
  28   1    -0.01   0.04   0.01     0.00  -0.01   0.02    -0.00  -0.03  -0.06
  29   1    -0.02   0.01  -0.02     0.01  -0.01  -0.01    -0.00  -0.03  -0.06
  30   1    -0.02  -0.01  -0.04     0.01  -0.02  -0.04     0.00  -0.01  -0.02
  31   1    -0.02  -0.02  -0.04     0.01  -0.02  -0.05    -0.00  -0.02  -0.05
  32   1    -0.01  -0.01   0.00     0.00  -0.00  -0.01    -0.00  -0.02  -0.06
  33   1     0.00  -0.00   0.03     0.00   0.01   0.02    -0.00  -0.01  -0.03
  34   1     0.01  -0.01   0.00    -0.00  -0.00  -0.01    -0.00  -0.02  -0.06
  35   1     0.02  -0.02  -0.04    -0.01  -0.02  -0.05    -0.00  -0.02  -0.05
  36   1     0.02  -0.01  -0.04    -0.01  -0.02  -0.04    -0.00  -0.01  -0.02
  37  29    -0.01  -0.13   0.07    -0.00  -0.04   0.16    -0.01  -0.16   0.36
  38   6    -0.06  -0.07  -0.04     0.02   0.03  -0.01     0.00   0.07  -0.12
  39   6    -0.04  -0.11   0.02     0.01   0.02   0.05     0.00   0.07  -0.12
  40   6    -0.01  -0.11   0.05     0.00  -0.00   0.07    -0.00   0.01  -0.00
  41   6    -0.00  -0.13   0.06    -0.00  -0.00   0.08    -0.00   0.02  -0.01
  42   6     0.01  -0.11   0.05    -0.01  -0.01   0.07     0.00   0.01  -0.00
  43   6     0.03  -0.11   0.02    -0.01   0.01   0.05     0.00   0.08  -0.12
  44   6     0.05  -0.06  -0.04    -0.02   0.03  -0.00     0.00   0.07  -0.11
  45   6     0.04  -0.04  -0.04    -0.01   0.02  -0.00    -0.00   0.01   0.00
  46   7     0.02  -0.08   0.02    -0.01  -0.01   0.06    -0.00  -0.03   0.08
  47   6     0.06   0.02  -0.10    -0.02   0.05  -0.07    -0.01   0.01  -0.00
  48   6     0.05   0.02  -0.07    -0.01   0.03  -0.06    -0.01  -0.00   0.01
  49   6     0.06   0.06  -0.09    -0.02   0.05  -0.11    -0.00   0.05  -0.11
  50   6     0.04   0.03  -0.00    -0.01   0.01  -0.04     0.00   0.05  -0.12
  51   6     0.02  -0.01   0.05    -0.01  -0.02   0.03    -0.00   0.00  -0.01
  52   7     0.02  -0.01   0.01    -0.01  -0.01   0.03    -0.01  -0.04   0.08
  53   6    -0.00  -0.01   0.10    -0.00  -0.04   0.07     0.00   0.01  -0.03
  54   6    -0.02  -0.00   0.05     0.01  -0.02   0.04     0.00   0.00  -0.01
  55   6    -0.04   0.03  -0.00     0.01   0.01  -0.04     0.01   0.05  -0.13
  56   6    -0.06   0.06  -0.09     0.02   0.04  -0.11     0.01   0.05  -0.11
  57   6    -0.05   0.02  -0.07     0.02   0.03  -0.06     0.00  -0.01   0.01
  58   7    -0.03  -0.01   0.01     0.01  -0.01   0.03    -0.00  -0.04   0.09
  59   6    -0.06   0.02  -0.10     0.02   0.04  -0.07     0.01   0.00   0.00
  60   6    -0.04  -0.04  -0.04     0.01   0.02  -0.00     0.00   0.00   0.01
  61   7    -0.02  -0.08   0.02     0.01  -0.01   0.06    -0.00  -0.03   0.08
  62   1    -0.02  -0.01  -0.02     0.01   0.02  -0.01     0.00   0.03  -0.06
  63   1    -0.01  -0.04   0.01     0.00   0.00   0.02    -0.00   0.04  -0.06
  64   1     0.01  -0.04   0.01    -0.00   0.00   0.02     0.00   0.04  -0.06
  65   1     0.02  -0.01  -0.02    -0.01   0.02  -0.01     0.00   0.03  -0.06
  66   1     0.02   0.01  -0.05    -0.01   0.02  -0.04    -0.00   0.01  -0.02
  67   1     0.02   0.03  -0.05    -0.01   0.02  -0.05    -0.00   0.02  -0.05
  68   1     0.01   0.01   0.00    -0.00   0.00  -0.01     0.00   0.03  -0.06
  69   1    -0.00  -0.00   0.04    -0.00  -0.02   0.02     0.00   0.01  -0.03
  70   1    -0.01   0.01   0.00     0.00   0.00  -0.01     0.00   0.03  -0.06
  71   1    -0.02   0.03  -0.05     0.01   0.02  -0.05     0.00   0.02  -0.05
  72   1    -0.02   0.01  -0.05     0.01   0.02  -0.04     0.00   0.01  -0.02
  73   6     0.00   0.08   0.04     0.00  -0.01   0.01     0.00  -0.02  -0.05
  74   6     0.00  -0.12   0.05     0.00   0.02  -0.11     0.00   0.01  -0.06
  75   6    -0.00   0.12   0.06    -0.00  -0.02  -0.11    -0.00  -0.01  -0.06
  76   6    -0.00  -0.08   0.05    -0.00   0.01   0.01    -0.00   0.03  -0.05
  77  29    -0.00   0.00  -0.01     0.00   0.01  -0.44     0.00  -0.01   0.33
  78   6     0.13  -0.10  -0.01    -0.02   0.00   0.18    -0.01   0.02  -0.10
  79   6     0.09  -0.14   0.04    -0.02   0.01   0.03    -0.00   0.02  -0.12
  80   6     0.04  -0.11   0.04    -0.00   0.02  -0.13     0.00   0.02  -0.01
  81   6     0.00  -0.13   0.05     0.00   0.02  -0.17     0.00   0.02  -0.02
  82   6    -0.03  -0.11   0.03     0.01   0.02  -0.13     0.00   0.02  -0.01
  83   6    -0.08  -0.14   0.03     0.02   0.01   0.03     0.00   0.02  -0.11
  84   6    -0.12  -0.10  -0.01     0.03   0.00   0.18     0.01   0.02  -0.09
  85   6    -0.10  -0.05  -0.03     0.02   0.00   0.09     0.01   0.01   0.02
  86   7    -0.05  -0.06  -0.00     0.01   0.01  -0.12     0.00   0.01   0.07
  87   6    -0.13   0.00  -0.06     0.03  -0.00   0.20     0.01   0.00   0.01
  88   6    -0.10   0.05  -0.03     0.02  -0.01   0.09     0.01  -0.01   0.01
  89   6    -0.13   0.10  -0.01     0.03  -0.01   0.18     0.01  -0.02  -0.10
  90   6    -0.09   0.14   0.04     0.02  -0.02   0.03     0.00  -0.02  -0.12
  91   6    -0.04   0.11   0.04     0.01  -0.02  -0.13    -0.00  -0.02  -0.01
  92   7    -0.05   0.07  -0.00     0.01  -0.01  -0.12     0.00  -0.01   0.07
  93   6    -0.00   0.13   0.05    -0.00  -0.02  -0.17    -0.00  -0.02  -0.03
  94   6     0.03   0.11   0.03    -0.01  -0.01  -0.13    -0.00  -0.02  -0.01
  95   6     0.08   0.14   0.03    -0.02  -0.01   0.03    -0.00  -0.02  -0.12
  96   6     0.12   0.10  -0.02    -0.03  -0.01   0.18    -0.01  -0.02  -0.10
  97   6     0.10   0.05  -0.03    -0.02  -0.00   0.09    -0.01  -0.01   0.02
  98   7     0.05   0.07  -0.00    -0.01  -0.01  -0.12    -0.00  -0.01   0.07
  99   6     0.13   0.00  -0.06    -0.02  -0.00   0.20    -0.01  -0.00   0.02
 100   6     0.10  -0.05  -0.03    -0.02   0.00   0.09    -0.01   0.01   0.02
 101   7     0.05  -0.06  -0.00    -0.01   0.01  -0.12    -0.00   0.01   0.07
 102   1     0.05  -0.03  -0.01    -0.01  -0.00   0.10    -0.00   0.01  -0.05
 103   1     0.03  -0.05   0.02    -0.00   0.00   0.01     0.00   0.01  -0.06
 104   1    -0.02  -0.05   0.02     0.01   0.00   0.01    -0.00   0.01  -0.06
 105   1    -0.05  -0.03  -0.01     0.01  -0.00   0.10     0.00   0.01  -0.05
 106   1    -0.05   0.00  -0.03     0.01  -0.00   0.11     0.01   0.00  -0.01
 107   1    -0.05   0.03  -0.01     0.01  -0.00   0.10     0.00  -0.00  -0.05
 108   1    -0.03   0.05   0.02     0.01  -0.01   0.01    -0.00  -0.01  -0.06
 109   1     0.02   0.05   0.02    -0.01  -0.00   0.01     0.00  -0.01  -0.06
 110   1     0.05   0.03  -0.01    -0.01  -0.00   0.10    -0.00  -0.01  -0.05
 111   1     0.05   0.00  -0.02    -0.01  -0.00   0.11    -0.01  -0.00  -0.01
                     19                     20                     21
                        a                      a                      a 
 Frequencies --    87.2222                95.2453                99.7693
 Red. masses --    29.7157                21.6531                19.8701
 Frc consts  --     0.0000                 0.0000                 0.0000
 IR Inten    --    94.2303              2813.2559                 4.5207
 Raman Activ --     0.0000                 0.0000                 0.0000
 Depolar     --     0.0000                 0.0000                 0.0000
 Atom AN      X      Y      Z        X      Y      Z        X      Y      Z
   1  29    -0.00  -0.16  -0.39    -0.18  -0.01  -0.02    -0.00  -0.07  -0.13
   2   6    -0.00   0.06   0.15    -0.08   0.03  -0.01    -0.01   0.04   0.14
   3   6    -0.00   0.07   0.18    -0.05  -0.01  -0.01    -0.01   0.04   0.16
   4   6    -0.00   0.01   0.04     0.00   0.02  -0.01    -0.00   0.00   0.06
   5   6    -0.00   0.02   0.05     0.05  -0.00  -0.00    -0.00  -0.01   0.04
   6   6     0.00   0.02   0.04     0.00  -0.02   0.01     0.00   0.00   0.06
   7   6     0.01   0.08   0.18    -0.04   0.01   0.02     0.01   0.04   0.15
   8   6     0.01   0.07   0.15    -0.08  -0.03   0.02     0.02   0.04   0.14
   9   6     0.01   0.00   0.00    -0.06  -0.08   0.01     0.01  -0.00   0.03
  10   7    -0.00  -0.03  -0.07    -0.01  -0.08   0.01     0.00  -0.02   0.00
  11   6     0.01  -0.00  -0.02    -0.06  -0.09   0.01     0.01  -0.03  -0.05
  12   6     0.00  -0.01  -0.04    -0.07  -0.06   0.01     0.01  -0.03  -0.08
  13   6     0.01   0.04   0.09    -0.05  -0.01   0.03     0.01  -0.01  -0.06
  14   6     0.01   0.06   0.13    -0.08   0.02   0.03     0.01   0.03   0.04
  15   6     0.01   0.01   0.02    -0.12  -0.01   0.01     0.01   0.03   0.05
  16   7     0.00  -0.04  -0.10    -0.12  -0.06   0.01     0.01  -0.01  -0.03
  17   6     0.01   0.03   0.06    -0.14   0.00  -0.00     0.01   0.06   0.12
  18   6     0.00   0.01   0.02    -0.12   0.01  -0.01    -0.00   0.03   0.05
  19   6     0.00   0.06   0.14    -0.09  -0.01  -0.01    -0.01   0.04   0.05
  20   6    -0.00   0.04   0.09    -0.06   0.02  -0.01    -0.02  -0.01  -0.05
  21   6    -0.00  -0.02  -0.04    -0.08   0.06  -0.01    -0.01  -0.03  -0.08
  22   7    -0.00  -0.04  -0.10    -0.12   0.05  -0.02    -0.01  -0.01  -0.03
  23   6    -0.00  -0.01  -0.03    -0.06   0.09  -0.01    -0.02  -0.03  -0.06
  24   6    -0.00  -0.01  -0.00    -0.06   0.08  -0.01    -0.01  -0.01   0.02
  25   7    -0.00  -0.04  -0.07    -0.01   0.07  -0.01    -0.00  -0.02  -0.01
  26   1    -0.00   0.03   0.07    -0.03   0.01  -0.00    -0.01   0.02   0.06
  27   1    -0.00   0.04   0.08    -0.01  -0.02  -0.01    -0.00   0.02   0.07
  28   1     0.01   0.03   0.08    -0.01   0.02   0.01     0.00   0.02   0.06
  29   1     0.01   0.03   0.07    -0.03  -0.01   0.01     0.01   0.02   0.06
  30   1     0.00   0.01   0.01    -0.02  -0.03   0.00     0.01  -0.01  -0.02
  31   1     0.00   0.02   0.04    -0.01  -0.00   0.01     0.00  -0.01  -0.03
  32   1     0.01   0.03   0.07    -0.02   0.02   0.01     0.00   0.02   0.02
  33   1     0.00   0.02   0.05    -0.04   0.00   0.00     0.00   0.03   0.06
  34   1     0.00   0.03   0.07    -0.02  -0.01  -0.01    -0.00   0.02   0.03
  35   1    -0.00   0.02   0.05    -0.01   0.01  -0.00    -0.01  -0.01  -0.03
  36   1    -0.00   0.00   0.01    -0.02   0.03   0.00    -0.01  -0.01  -0.02
  37  29    -0.01  -0.18   0.38    -0.18  -0.01   0.02     0.01   0.08  -0.12
  38   6    -0.00   0.07  -0.15    -0.08   0.03   0.01     0.02  -0.04   0.13
  39   6    -0.00   0.08  -0.18    -0.04  -0.01   0.02     0.01  -0.05   0.15
  40   6    -0.00   0.02  -0.04     0.00   0.02   0.01     0.00  -0.01   0.06
  41   6    -0.00   0.02  -0.05     0.05  -0.00   0.00    -0.00   0.01   0.04
  42   6     0.00   0.02  -0.04     0.00  -0.02  -0.01    -0.00  -0.00   0.06
  43   6     0.01   0.08  -0.17    -0.04   0.01  -0.01    -0.01  -0.05   0.15
  44   6     0.01   0.08  -0.15    -0.08  -0.03  -0.01    -0.02  -0.05   0.13
  45   6     0.01   0.00  -0.00    -0.06  -0.08  -0.01    -0.01   0.00   0.03
  46   7    -0.00  -0.03   0.06    -0.01  -0.08  -0.01    -0.00   0.02   0.00
  47   6     0.00  -0.01   0.02    -0.06  -0.09  -0.02    -0.01   0.03  -0.05
  48   6     0.00  -0.01   0.04    -0.08  -0.06  -0.02    -0.01   0.03  -0.07
  49   6     0.01   0.04  -0.08    -0.06  -0.01  -0.03    -0.01   0.02  -0.06
  50   6     0.01   0.07  -0.13    -0.08   0.02  -0.03    -0.01  -0.03   0.03
  51   6     0.01   0.01  -0.02    -0.12  -0.01  -0.01    -0.00  -0.03   0.05
  52   7     0.00  -0.04   0.10    -0.12  -0.06  -0.01    -0.00   0.01  -0.03
  53   6     0.01   0.03  -0.06    -0.14  -0.00   0.00    -0.00  -0.07   0.11
  54   6     0.00   0.01  -0.02    -0.12   0.01   0.02     0.01  -0.04   0.05
  55   6     0.00   0.07  -0.14    -0.09  -0.01   0.01     0.01  -0.04   0.04
  56   6    -0.00   0.04  -0.09    -0.06   0.02   0.01     0.02   0.01  -0.05
  57   6    -0.00  -0.02   0.04    -0.08   0.06   0.01     0.02   0.03  -0.08
  58   7    -0.00  -0.05   0.10    -0.12   0.05   0.02     0.01   0.01  -0.03
  59   6    -0.00  -0.02   0.03    -0.06   0.09   0.01     0.02   0.03  -0.06
  60   6    -0.00  -0.01   0.00    -0.06   0.08   0.01     0.01   0.00   0.02
  61   7    -0.00  -0.04   0.07    -0.01   0.07   0.02     0.00   0.02  -0.00
  62   1    -0.00   0.03  -0.07    -0.03   0.01   0.00     0.01  -0.02   0.05
  63   1    -0.00   0.04  -0.08    -0.01  -0.02   0.01     0.00  -0.02   0.06
  64   1     0.00   0.04  -0.08    -0.01   0.01  -0.01    -0.00  -0.02   0.06
  65   1     0.01   0.03  -0.07    -0.03  -0.01  -0.00    -0.01  -0.02   0.05
  66   1     0.00   0.01  -0.01    -0.02  -0.03  -0.01    -0.01   0.01  -0.02
  67   1     0.00   0.02  -0.04    -0.01  -0.00  -0.01    -0.00   0.01  -0.03
  68   1     0.00   0.03  -0.07    -0.02   0.02  -0.01    -0.00  -0.02   0.02
  69   1     0.00   0.02  -0.05    -0.04  -0.00   0.00    -0.00  -0.03   0.05
  70   1     0.00   0.03  -0.07    -0.02  -0.01   0.00     0.00  -0.02   0.03
  71   1    -0.00   0.02  -0.04    -0.01   0.01   0.00     0.01   0.01  -0.03
  72   1    -0.00   0.00  -0.01    -0.02   0.03   0.00     0.01   0.01  -0.02
  73   6    -0.00   0.02   0.08     0.06  -0.00   0.00    -0.00  -0.03  -0.03
  74   6    -0.00  -0.00   0.04     0.07   0.00   0.00    -0.00  -0.01  -0.15
  75   6    -0.00  -0.00  -0.03     0.07   0.00  -0.00    -0.00   0.02  -0.15
  76   6    -0.00   0.03  -0.08     0.06   0.00  -0.00    -0.00   0.03  -0.03
  77  29    -0.01  -0.02  -0.00     0.34   0.00   0.01    -0.00  -0.01   0.36
  78   6    -0.00  -0.00  -0.06     0.13   0.01   0.00     0.01  -0.00  -0.09
  79   6    -0.00  -0.01  -0.05     0.12  -0.00   0.02     0.01  -0.00  -0.21
  80   6    -0.00  -0.01  -0.02     0.11   0.01   0.01     0.00  -0.01  -0.10
  81   6    -0.00  -0.01  -0.00     0.08   0.00  -0.00    -0.00  -0.01  -0.14
  82   6    -0.00  -0.01  -0.02     0.11  -0.01  -0.01    -0.00  -0.01  -0.10
  83   6    -0.00  -0.00  -0.05     0.12   0.00  -0.03    -0.01  -0.00  -0.21
  84   6    -0.00  -0.00  -0.07     0.13  -0.01  -0.01    -0.01  -0.01  -0.10
  85   6    -0.00  -0.00  -0.04     0.12  -0.02   0.02    -0.01  -0.01   0.06
  86   7    -0.00  -0.01  -0.03     0.12  -0.02   0.02    -0.00  -0.01   0.05
  87   6    -0.00  -0.01  -0.00     0.12  -0.00   0.03    -0.01  -0.00   0.11
  88   6    -0.00  -0.01   0.04     0.12   0.02   0.02    -0.01   0.00   0.06
  89   6    -0.00  -0.01   0.07     0.13   0.01  -0.01    -0.02   0.01  -0.09
  90   6    -0.00  -0.01   0.06     0.12   0.00  -0.03    -0.02   0.01  -0.20
  91   6    -0.00  -0.01   0.02     0.11   0.01  -0.01    -0.01   0.01  -0.10
  92   7    -0.00  -0.01   0.02     0.12   0.02   0.02    -0.00   0.01   0.06
  93   6    -0.00  -0.01   0.00     0.08   0.00  -0.00    -0.00   0.01  -0.14
  94   6    -0.00  -0.01   0.02     0.11  -0.01   0.01     0.00   0.01  -0.10
  95   6    -0.00  -0.01   0.05     0.12   0.00   0.02     0.01   0.01  -0.21
  96   6    -0.00  -0.01   0.07     0.13  -0.01   0.00     0.01   0.01  -0.10
  97   6    -0.00  -0.01   0.04     0.12  -0.01  -0.02     0.00   0.01   0.06
  98   7    -0.00  -0.01   0.03     0.12  -0.02  -0.02    -0.00   0.01   0.06
  99   6    -0.00  -0.01   0.01     0.12   0.00  -0.03     0.00  -0.00   0.12
 100   6    -0.00  -0.01  -0.03     0.12   0.02  -0.02     0.00  -0.01   0.06
 101   7    -0.01  -0.01  -0.02     0.12   0.02  -0.02    -0.00  -0.01   0.06
 102   1    -0.00  -0.00  -0.02     0.04   0.00   0.00     0.01  -0.00  -0.04
 103   1    -0.00  -0.00  -0.02     0.03  -0.00   0.01     0.01   0.00  -0.10
 104   1    -0.00  -0.00  -0.01     0.03   0.00  -0.02    -0.01   0.00  -0.10
 105   1    -0.00  -0.00  -0.02     0.04  -0.00  -0.01    -0.01  -0.00  -0.04
 106   1    -0.00  -0.00  -0.00     0.03  -0.00   0.01    -0.00  -0.00   0.04
 107   1    -0.00  -0.00   0.03     0.04   0.00  -0.00    -0.01   0.00  -0.04
 108   1    -0.00  -0.00   0.02     0.03  -0.00  -0.02    -0.01   0.00  -0.10
 109   1    -0.00  -0.00   0.01     0.04   0.00   0.02     0.00   0.00  -0.10
 110   1    -0.00  -0.00   0.03     0.04  -0.00   0.00     0.00   0.00  -0.04
 111   1    -0.00  -0.00   0.00     0.03   0.00  -0.01     0.00  -0.00   0.04
                     22                     23                     24
                        a                      a                      a 
 Frequencies --   114.7819               118.0608               122.8584
 Red. masses --    11.1607                10.8333                10.8293
 Frc consts  --     0.0000                 0.0000                 0.0000
 IR Inten    --    15.3511               441.9231                 4.2694
 Raman Activ --     0.0000                 0.0000                 0.0000
 Depolar     --     0.0000                 0.0000                 0.0000
 Atom AN      X      Y      Z        X      Y      Z        X      Y      Z
   1  29    -0.00   0.02  -0.02     0.00   0.00  -0.00     0.01  -0.01  -0.00
   2   6     0.01  -0.05  -0.14    -0.00   0.02   0.04     0.01  -0.03  -0.07
   3   6     0.01  -0.02  -0.08    -0.00   0.05   0.13     0.01  -0.08  -0.19
   4   6     0.00   0.03   0.04     0.00   0.01   0.03     0.01  -0.02  -0.05
   5   6    -0.00   0.07   0.11     0.00  -0.00  -0.00     0.01  -0.00  -0.00
   6   6    -0.00   0.03   0.04     0.00  -0.02  -0.03     0.01   0.02   0.05
   7   6    -0.01  -0.02  -0.09    -0.01  -0.06  -0.12     0.01   0.09   0.20
   8   6    -0.01  -0.05  -0.15    -0.00  -0.02  -0.04     0.01   0.04   0.08
   9   6    -0.01  -0.00  -0.04     0.00   0.04   0.09    -0.00  -0.05  -0.11
  10   7    -0.00   0.04   0.05     0.00   0.04   0.08    -0.00  -0.05  -0.11
  11   6    -0.01   0.02   0.03     0.00   0.06   0.14    -0.00  -0.09  -0.20
  12   6    -0.01   0.03   0.06     0.00   0.04   0.08     0.00  -0.06  -0.12
  13   6    -0.00   0.06   0.14    -0.01  -0.02  -0.05     0.01   0.02   0.06
  14   6    -0.01   0.01   0.03    -0.01  -0.05  -0.13     0.02   0.08   0.19
  15   6    -0.01  -0.04  -0.09    -0.00  -0.01  -0.04     0.01   0.02   0.05
  16   7    -0.01  -0.02  -0.06     0.00   0.03   0.08     0.00  -0.05  -0.12
  17   6    -0.00  -0.07  -0.15     0.00   0.00   0.00     0.00   0.00   0.01
  18   6     0.00  -0.04  -0.08     0.00   0.01   0.04    -0.00  -0.02  -0.05
  19   6     0.01   0.01   0.04     0.00   0.05   0.13    -0.00  -0.07  -0.19
  20   6     0.02   0.05   0.14     0.00   0.02   0.05    -0.00  -0.03  -0.08
  21   6     0.01   0.02   0.06    -0.00  -0.03  -0.08     0.00   0.05   0.12
  22   7     0.01  -0.03  -0.06    -0.00  -0.03  -0.08     0.01   0.05   0.12
  23   6     0.01   0.01   0.02    -0.00  -0.06  -0.14     0.01   0.08   0.20
  24   6     0.01  -0.01  -0.04    -0.00  -0.04  -0.09     0.00   0.05   0.12
  25   7     0.00   0.03   0.04     0.00  -0.04  -0.08     0.00   0.05   0.11
  26   1     0.01  -0.03  -0.07    -0.00   0.01   0.02     0.00  -0.01  -0.03
  27   1     0.00  -0.01  -0.04    -0.00   0.03   0.07     0.00  -0.04  -0.10
  28   1    -0.00  -0.01  -0.04    -0.00  -0.03  -0.07     0.01   0.05   0.10
  29   1    -0.01  -0.03  -0.07    -0.00  -0.01  -0.02     0.00   0.02   0.04
  30   1    -0.00   0.01   0.01     0.00   0.02   0.04    -0.00  -0.03  -0.06
  31   1    -0.00   0.03   0.07    -0.00  -0.01  -0.02     0.00   0.01   0.03
  32   1    -0.00   0.00   0.01    -0.00  -0.03  -0.07     0.01   0.04   0.10
  33   1    -0.00  -0.03  -0.06     0.00   0.00   0.00     0.00   0.00   0.00
  34   1     0.00   0.00   0.02     0.00   0.03   0.07    -0.00  -0.04  -0.10
  35   1     0.01   0.03   0.08     0.00   0.01   0.02    -0.00  -0.01  -0.04
  36   1     0.01   0.01   0.01    -0.00  -0.02  -0.05     0.00   0.03   0.06
  37  29     0.00   0.02   0.02     0.00   0.00  -0.00    -0.01   0.00  -0.00
  38   6     0.01  -0.05   0.14    -0.00   0.02  -0.03    -0.00   0.03  -0.07
  39   6     0.01  -0.02   0.08    -0.00   0.05  -0.11    -0.01   0.09  -0.18
  40   6     0.00   0.04  -0.04     0.00   0.01  -0.03    -0.01   0.03  -0.05
  41   6    -0.00   0.07  -0.10     0.00  -0.00   0.00    -0.01   0.00  -0.01
  42   6    -0.00   0.04  -0.04     0.00  -0.02   0.03    -0.01  -0.03   0.05
  43   6    -0.01  -0.02   0.09    -0.01  -0.06   0.11    -0.01  -0.10   0.19
  44   6    -0.01  -0.06   0.14    -0.00  -0.02   0.03    -0.01  -0.04   0.08
  45   6    -0.01  -0.01   0.04     0.00   0.04  -0.08     0.00   0.06  -0.11
  46   7    -0.00   0.04  -0.04     0.00   0.04  -0.08    -0.00   0.06  -0.11
  47   6    -0.01   0.02  -0.02     0.00   0.06  -0.13     0.00   0.10  -0.19
  48   6    -0.01   0.03  -0.06     0.00   0.04  -0.07     0.00   0.06  -0.12
  49   6    -0.01   0.06  -0.14    -0.00  -0.02   0.05    -0.01  -0.03   0.06
  50   6    -0.01   0.01  -0.03    -0.01  -0.06   0.12    -0.01  -0.09   0.18
  51   6    -0.00  -0.04   0.08    -0.00  -0.02   0.03    -0.00  -0.02   0.05
  52   7    -0.01  -0.02   0.06     0.00   0.03  -0.07     0.00   0.06  -0.11
  53   6    -0.00  -0.08   0.15     0.00  -0.00  -0.00     0.00  -0.00   0.01
  54   6     0.00  -0.04   0.08     0.00   0.01  -0.03     0.00   0.02  -0.04
  55   6     0.01   0.01  -0.04     0.00   0.05  -0.12     0.00   0.09  -0.19
  56   6     0.02   0.06  -0.14     0.00   0.02  -0.05     0.00   0.03  -0.08
  57   6     0.01   0.03  -0.06    -0.00  -0.03   0.07    -0.00  -0.06   0.11
  58   7     0.01  -0.03   0.06    -0.00  -0.03   0.07    -0.00  -0.06   0.12
  59   6     0.01   0.01  -0.02    -0.00  -0.06   0.13    -0.00  -0.09   0.19
  60   6     0.01  -0.01   0.04    -0.00  -0.04   0.08    -0.00  -0.06   0.11
  61   7     0.00   0.03  -0.04     0.00  -0.04   0.08    -0.01  -0.05   0.11
  62   1     0.01  -0.03   0.07    -0.00   0.01  -0.02    -0.00   0.02  -0.03
  63   1     0.00  -0.01   0.04    -0.00   0.03  -0.06    -0.00   0.05  -0.10
  64   1    -0.00  -0.01   0.04    -0.00  -0.03   0.06    -0.01  -0.05   0.10
  65   1    -0.01  -0.03   0.07    -0.00  -0.01   0.02    -0.00  -0.02   0.04
  66   1    -0.00   0.01  -0.01     0.00   0.02  -0.04     0.00   0.03  -0.06
  67   1    -0.00   0.03  -0.07    -0.00  -0.01   0.02    -0.00  -0.01   0.03
  68   1    -0.00   0.00  -0.01    -0.00  -0.03   0.07    -0.01  -0.05   0.10
  69   1    -0.00  -0.03   0.05     0.00  -0.00  -0.00     0.00  -0.00   0.00
[...]
  95   6    -0.00   0.00  -0.00    -0.14   0.01  -0.01    -0.03   0.00  -0.00
  96   6     0.00  -0.00   0.00    -0.01   0.09  -0.00    -0.00   0.02  -0.00
  97   6    -0.00   0.00  -0.00     0.00   0.00   0.00     0.00   0.00   0.00
  98   7    -0.00   0.00   0.00     0.00  -0.00   0.00     0.00  -0.00  -0.00
  99   6    -0.00  -0.00  -0.00    -0.00   0.00  -0.00    -0.00   0.00   0.00
 100   6     0.00   0.00  -0.00     0.00  -0.00   0.00    -0.00   0.00  -0.00
 101   7     0.00   0.00  -0.00     0.00  -0.00   0.00    -0.00  -0.00  -0.00
 102   1    -0.00  -0.00  -0.00     0.00   0.02   0.00    -0.00  -0.03  -0.00
 103   1    -0.01  -0.00  -0.00     0.05   0.01   0.00    -0.04  -0.01  -0.00
 104   1    -0.01   0.00   0.00     0.00  -0.00  -0.00     0.30  -0.03  -0.02
 105   1    -0.00   0.00   0.00     0.00  -0.00  -0.00     0.02  -0.17  -0.01
 106   1     0.00  -0.00  -0.00     0.00  -0.00  -0.00    -0.00   0.00   0.00
 107   1    -0.00  -0.00   0.00    -0.00  -0.05   0.00     0.03   0.31  -0.01
 108   1     0.01   0.00  -0.00    -0.09  -0.01   0.01     0.55   0.07  -0.03
 109   1     0.00  -0.00   0.00     0.47  -0.05   0.02     0.08  -0.01   0.00
 110   1    -0.00   0.00  -0.00     0.03  -0.29   0.01     0.01  -0.05   0.00
 111   1    -0.00   0.00  -0.00    -0.00  -0.01  -0.00     0.00  -0.00  -0.00
                    322                    323                    324
                        a                      a                      a 
 Frequencies --  3168.7183              3169.1366              3169.5341
 Red. masses --     1.9596                 1.9581                 1.9584
 Frc consts  --     0.0000                 0.0000                 0.0000
 IR Inten    --   499.9607              4900.3129                18.6911
 Raman Activ --     0.0000                 0.0000                 0.0000
 Depolar     --     0.0000                 0.0000                 0.0000
 Atom AN      X      Y      Z        X      Y      Z        X      Y      Z
   1  29     0.00   0.00  -0.00     0.00  -0.00   0.00     0.00  -0.00   0.00
   2   6     0.00  -0.05   0.02    -0.00   0.08  -0.03    -0.00   0.01  -0.01
   3   6     0.08  -0.01   0.01    -0.15   0.01  -0.01    -0.03   0.00  -0.00
   4   6     0.00   0.00  -0.00    -0.00  -0.00   0.00    -0.00  -0.00   0.00
   5   6    -0.00  -0.00   0.00    -0.00   0.00  -0.00    -0.00   0.00  -0.00
   6   6    -0.00   0.00  -0.00    -0.00   0.00  -0.00     0.00   0.00  -0.00
   7   6    -0.14  -0.01   0.01    -0.08  -0.00   0.01    -0.00  -0.00   0.00
   8   6    -0.00  -0.08   0.04    -0.00  -0.04   0.02    -0.00  -0.00   0.00
   9   6     0.00  -0.00   0.00     0.00  -0.00   0.00     0.00   0.00  -0.00
  10   7     0.00   0.00  -0.00     0.00   0.00  -0.00     0.00   0.00  -0.00
  11   6    -0.00  -0.00   0.00    -0.00  -0.00   0.00    -0.00  -0.00   0.00
  12   6    -0.00   0.00  -0.00    -0.00  -0.00   0.00    -0.00   0.00  -0.00
  13   6     0.00  -0.00   0.00     0.00  -0.00   0.00     0.00  -0.00   0.00
  14   6     0.00  -0.00  -0.00     0.00  -0.00  -0.00     0.00  -0.00  -0.00
  15   6     0.00   0.00  -0.00     0.00   0.00  -0.00    -0.00   0.00  -0.00
  16   7    -0.00   0.00  -0.00     0.00  -0.00   0.00    -0.00   0.00  -0.00
  17   6     0.00  -0.00   0.00     0.00   0.00  -0.00     0.00   0.00  -0.00
  18   6    -0.00  -0.00   0.00     0.00  -0.00   0.00    -0.00  -0.00   0.00
  19   6     0.00   0.00  -0.00     0.00   0.00  -0.00     0.00   0.00  -0.00
  20   6     0.00   0.00  -0.00     0.00   0.00  -0.00     0.00   0.00  -0.00
  21   6    -0.00   0.00  -0.00    -0.00   0.00  -0.00    -0.00  -0.00   0.00
  22   7    -0.00  -0.00   0.00     0.00   0.00  -0.00    -0.00  -0.00   0.00
  23   6     0.00  -0.00   0.00    -0.00   0.00  -0.00    -0.00   0.00  -0.00
  24   6    -0.00  -0.00   0.00     0.00   0.00  -0.00     0.00   0.00  -0.00
  25   7    -0.00   0.00  -0.00     0.00  -0.00   0.00     0.00  -0.00   0.00
  26   1    -0.01   0.14  -0.06     0.03  -0.25   0.11     0.00  -0.04   0.02
  27   1    -0.28   0.03  -0.02     0.49  -0.05   0.04     0.08  -0.01   0.01
  28   1     0.48   0.04  -0.05     0.26   0.02  -0.02     0.01   0.00  -0.00
  29   1     0.03   0.25  -0.12     0.02   0.14  -0.06     0.00   0.01  -0.00
  30   1    -0.00   0.00  -0.00    -0.00   0.00  -0.00    -0.00   0.00  -0.00
  31   1    -0.00   0.01  -0.00    -0.00   0.01  -0.00    -0.00   0.00  -0.00
  32   1    -0.01   0.00  -0.00    -0.01   0.00  -0.00    -0.00   0.00  -0.00
  33   1    -0.00   0.00   0.00    -0.00   0.00   0.00    -0.00   0.00   0.00
  34   1    -0.00  -0.00   0.00    -0.01  -0.00   0.00    -0.00  -0.00   0.00
  35   1    -0.00  -0.00   0.00    -0.00  -0.01   0.00    -0.00  -0.00   0.00
  36   1     0.00   0.00  -0.00    -0.00  -0.00   0.00    -0.00  -0.00   0.00
  37  29    -0.00   0.00   0.00    -0.00  -0.00  -0.00     0.00   0.00   0.00
  38   6     0.00  -0.04  -0.02     0.00  -0.01  -0.01     0.00  -0.00  -0.00
  39   6     0.08  -0.00  -0.00     0.02  -0.00  -0.00     0.01  -0.00  -0.00
  40   6     0.00   0.00   0.00     0.00   0.00   0.00     0.00   0.00   0.00
  41   6     0.00  -0.00  -0.00     0.00   0.00   0.00    -0.00  -0.00  -0.00
  42   6     0.00  -0.00  -0.00     0.00  -0.00  -0.00    -0.00   0.00   0.00
  43   6     0.00   0.00   0.00     0.03   0.00   0.00    -0.15  -0.01  -0.01
  44   6     0.00   0.00   0.00     0.00   0.02   0.01    -0.00  -0.07  -0.04
  45   6    -0.00   0.00   0.00    -0.00   0.00   0.00     0.00  -0.00  -0.00
  46   7     0.00   0.00   0.00    -0.00  -0.00  -0.00     0.00   0.00   0.00
  47   6     0.00   0.00   0.00     0.00   0.00   0.00    -0.00  -0.00  -0.00
  48   6     0.00   0.00   0.00     0.00  -0.00   0.00     0.00   0.00   0.00
  49   6    -0.00   0.00   0.00    -0.00   0.00   0.00     0.00  -0.00  -0.00
  50   6    -0.00   0.00  -0.00    -0.00   0.00  -0.00     0.00  -0.00  -0.00
  51   6    -0.00  -0.00  -0.00     0.00  -0.00  -0.00    -0.00   0.00  -0.00
  52   7    -0.00   0.00   0.00     0.00  -0.00  -0.00     0.00   0.00   0.00
  53   6    -0.00  -0.00  -0.00    -0.00  -0.00  -0.00    -0.00  -0.00  -0.00
  54   6    -0.00   0.00   0.00     0.00   0.00   0.00    -0.00  -0.00  -0.00
  55   6    -0.00  -0.00  -0.00    -0.00  -0.00  -0.00     0.00   0.00   0.00
  56   6    -0.00  -0.00  -0.00    -0.00  -0.00  -0.00     0.00   0.00   0.00
  57   6     0.00  -0.00  -0.00     0.00   0.00   0.00    -0.00  -0.00  -0.00
  58   7    -0.00  -0.00  -0.00     0.00   0.00   0.00     0.00   0.00   0.00
  59   6     0.00  -0.00  -0.00     0.00  -0.00  -0.00     0.00  -0.00  -0.00
  60   6    -0.00  -0.00  -0.00    -0.00  -0.00  -0.00    -0.00  -0.00  -0.00
  61   7    -0.00   0.00   0.00    -0.00   0.00   0.00    -0.00   0.00   0.00
  62   1    -0.02   0.14   0.07    -0.00   0.04   0.02    -0.00   0.01   0.01
  63   1    -0.26   0.02   0.02    -0.07   0.01   0.00    -0.03   0.00   0.00
  64   1    -0.01  -0.00  -0.00    -0.11  -0.01  -0.01     0.49   0.04   0.05
  65   1    -0.00  -0.01  -0.00    -0.01  -0.05  -0.03     0.02   0.22   0.12
  66   1     0.00  -0.00  -0.00     0.00  -0.00  -0.00    -0.00   0.00   0.00
  67   1     0.00  -0.00  -0.00     0.00  -0.00  -0.00    -0.00   0.00   0.00
  68   1     0.00  -0.00  -0.00     0.00  -0.00  -0.00    -0.00   0.00   0.00
  69   1     0.00  -0.00   0.00     0.00  -0.00   0.00     0.00   0.00   0.00
  70   1     0.01   0.00   0.00     0.00   0.00   0.00    -0.00  -0.00  -0.00
  71   1     0.00   0.01   0.00     0.00   0.01   0.00    -0.00  -0.00  -0.00
  72   1     0.00   0.00   0.00     0.00   0.00   0.00     0.00   0.00   0.00
  73   6     0.00   0.00   0.00     0.00  -0.00  -0.00     0.00  -0.00  -0.00
  74   6     0.00   0.00  -0.00    -0.00  -0.00   0.00     0.00  -0.00   0.00
  75   6     0.00   0.00   0.00    -0.00  -0.00  -0.00     0.00   0.00   0.00
  76   6    -0.00   0.00  -0.00     0.00   0.00  -0.00     0.00  -0.00  -0.00
  77  29     0.00   0.00   0.00    -0.00  -0.00   0.00     0.00  -0.00  -0.00
  78   6    -0.00  -0.04  -0.00     0.00   0.10   0.00     0.00   0.01   0.00
  79   6    -0.07  -0.01  -0.00     0.16   0.02   0.01     0.01   0.00   0.00
  80   6    -0.00   0.00   0.00     0.00  -0.01  -0.00     0.00  -0.00  -0.00
  81   6     0.00  -0.00  -0.00     0.00   0.00   0.00    -0.00   0.00   0.00
  82   6     0.00   0.00   0.00     0.00   0.00   0.00    -0.00   0.00  -0.00
  83   6     0.10  -0.01  -0.01     0.07  -0.00  -0.00     0.00  -0.00  -0.00
  84   6     0.00  -0.06  -0.00     0.00  -0.04  -0.00     0.00  -0.00  -0.00
  85   6    -0.00  -0.00   0.00    -0.00  -0.00   0.00    -0.00   0.00  -0.00
  86   7    -0.00   0.00   0.00    -0.00   0.00   0.00     0.00  -0.00   0.00
  87   6    -0.00  -0.00  -0.00     0.00  -0.00  -0.00     0.00   0.00   0.00
  88   6     0.00  -0.00  -0.00     0.00  -0.00  -0.00    -0.00   0.00   0.00
  89   6    -0.00  -0.07   0.00    -0.00  -0.02   0.00     0.00   0.01  -0.00
  90   6    -0.11  -0.01   0.01    -0.04  -0.00   0.00     0.02   0.00  -0.00
  91   6    -0.00   0.00  -0.00    -0.00   0.00  -0.00     0.00  -0.00  -0.00
  92   7     0.00   0.00  -0.00     0.00   0.00  -0.00    -0.00  -0.00   0.00
  93   6    -0.00  -0.00   0.00    -0.00  -0.00   0.00    -0.00   0.00  -0.00
  94   6    -0.00  -0.00   0.00     0.00   0.00  -0.00    -0.00  -0.01   0.00
  95   6    -0.02   0.00  -0.00     0.01  -0.00   0.00    -0.20   0.02  -0.01
  96   6    -0.00   0.01  -0.00    -0.00  -0.00   0.00    -0.01   0.11  -0.00
  97   6     0.00   0.00   0.00    -0.00  -0.00  -0.00     0.00   0.00   0.00
  98   7     0.00  -0.00   0.00     0.00  -0.00   0.00     0.00  -0.00   0.00
  99   6    -0.00  -0.00  -0.00     0.00   0.00   0.00    -0.00   0.00  -0.00
 100   6     0.00  -0.00   0.00    -0.00   0.00  -0.00    -0.00  -0.00  -0.00
 101   7     0.00   0.00   0.00    -0.00  -0.00  -0.00    -0.00  -0.00  -0.00
 102   1     0.01   0.14   0.01    -0.03  -0.30  -0.01    -0.00  -0.03  -0.00
 103   1     0.25   0.03   0.01    -0.54  -0.07  -0.03    -0.04  -0.01  -0.00
 104   1    -0.33   0.03   0.02    -0.23   0.02   0.01    -0.00   0.00   0.00
 105   1    -0.02   0.19   0.01    -0.01   0.13   0.01    -0.00   0.00   0.00
 106   1    -0.00   0.01   0.00     0.00   0.00   0.00     0.00  -0.00  -0.00
 107   1     0.02   0.21  -0.00     0.01   0.07  -0.00    -0.00  -0.03   0.00
 108   1     0.36   0.05  -0.02     0.13   0.02  -0.01    -0.06  -0.01   0.00
 109   1     0.07  -0.01   0.00    -0.02   0.00  -0.00     0.67  -0.07   0.03
 110   1     0.00  -0.04   0.00    -0.00   0.00  -0.00     0.04  -0.35   0.01
 111   1    -0.00   0.00   0.00     0.00  -0.01  -0.00    -0.00  -0.01  -0.00
                    325                    326                    327
                        a                      a                      a 
 Frequencies --  3170.3007              3170.4881              3170.6422
 Red. masses --     1.9573                 1.9563                 1.9564
 Frc consts  --     0.0000                 0.0000                 0.0000
 IR Inten    --   432.5469                42.1278                42.0552
 Raman Activ --     0.0000                 0.0000                 0.0000
 Depolar     --     0.0000                 0.0000                 0.0000
 Atom AN      X      Y      Z        X      Y      Z        X      Y      Z
   1  29     0.00   0.00  -0.00     0.00   0.00  -0.00     0.00  -0.00   0.00
   2   6    -0.00   0.00  -0.00     0.00  -0.03   0.01    -0.00   0.08  -0.04
   3   6    -0.01   0.00  -0.00     0.07  -0.00   0.00    -0.17   0.01  -0.01
   4   6    -0.00  -0.00   0.00     0.00   0.00  -0.00    -0.00  -0.01   0.00
   5   6    -0.00  -0.00   0.00    -0.00  -0.00   0.00    -0.00   0.00  -0.00
   6   6    -0.00   0.00  -0.00    -0.00   0.00  -0.00    -0.00   0.00  -0.00
   7   6    -0.02  -0.00   0.00    -0.14  -0.01   0.01    -0.07  -0.00   0.01
   8   6    -0.00  -0.01   0.01    -0.00  -0.07   0.03    -0.00  -0.03   0.02
   9   6     0.00  -0.00  -0.00     0.00  -0.00   0.00     0.00  -0.00  -0.00
  10   7     0.00   0.00  -0.00     0.00   0.00  -0.00     0.00   0.00  -0.00
  11   6    -0.00  -0.00   0.00    -0.00  -0.00   0.00    -0.00  -0.00   0.00
  12   6    -0.00   0.00  -0.00     0.00   0.00  -0.00    -0.00   0.00  -0.00
  13   6     0.00  -0.00   0.00     0.00  -0.00   0.00     0.00  -0.00   0.00
  14   6     0.00  -0.00  -0.00    -0.00   0.00  -0.00     0.00  -0.00   0.00
  15   6    -0.00   0.00  -0.00    -0.00   0.00   0.00    -0.00   0.00  -0.00
  16   7    -0.00   0.00  -0.00    -0.00   0.00  -0.00     0.00  -0.00   0.00
  17   6    -0.00  -0.00   0.00    -0.00  -0.00   0.00    -0.00   0.00  -0.00
  18   6    -0.00  -0.00   0.00    -0.00  -0.00   0.00    -0.00  -0.00   0.00
  19   6     0.00   0.00  -0.00    -0.00   0.00  -0.00     0.00   0.00  -0.00
  20   6     0.00  -0.00   0.00     0.00  -0.00   0.00     0.00   0.00  -0.00
  21   6    -0.00  -0.00   0.00    -0.00  -0.00  -0.00     0.00  -0.00   0.00
  22   7    -0.00  -0.00   0.00     0.00   0.00  -0.00     0.00   0.00  -0.00
  23   6    -0.00  -0.00   0.00     0.00  -0.00   0.00    -0.00   0.00  -0.00
  24   6     0.00  -0.00   0.00    -0.00  -0.00   0.00     0.00   0.00  -0.00
  25   7     0.00  -0.00   0.00    -0.00   0.00  -0.00     0.00  -0.00   0.00
  26   1     0.00  -0.01   0.00    -0.01   0.10  -0.04     0.03  -0.25   0.11
  27   1     0.03  -0.00   0.00    -0.22   0.02  -0.02     0.58  -0.06   0.04
  28   1     0.08   0.01  -0.01     0.46   0.04  -0.05     0.22   0.02  -0.02
  29   1     0.00   0.04  -0.02     0.02   0.20  -0.09     0.01   0.10  -0.05
  30   1    -0.00   0.00  -0.00    -0.00   0.00  -0.00    -0.00   0.00  -0.00
  31   1    -0.00   0.00  -0.00    -0.00   0.00  -0.00    -0.00   0.00  -0.00
  32   1    -0.00   0.00  -0.00     0.00  -0.00   0.00    -0.00   0.00  -0.00
  33   1     0.00   0.00  -0.00     0.00   0.00  -0.00     0.00  -0.00  -0.00
  34   1    -0.00  -0.00   0.00    -0.00   0.00   0.00    -0.00  -0.00   0.00
  35   1    -0.00   0.00   0.00     0.00   0.00  -0.00    -0.00  -0.00   0.00
  36   1    -0.00   0.00  -0.00     0.00   0.00  -0.00    -0.00  -0.00   0.00
  37  29     0.00  -0.00  -0.00    -0.00   0.00   0.00    -0.00   0.00   0.00
  38   6    -0.00   0.10   0.05     0.00  -0.01  -0.00     0.00  -0.01  -0.00
  39   6    -0.21   0.01   0.01     0.02  -0.00  -0.00     0.02  -0.00  -0.00
  40   6    -0.00  -0.01  -0.00     0.00   0.00   0.00     0.00   0.00   0.00
  41   6    -0.00   0.00   0.00     0.00  -0.00  -0.00     0.00  -0.00  -0.00
  42   6    -0.00   0.00   0.00     0.00  -0.00  -0.00     0.00  -0.00  -0.00
  43   6    -0.02  -0.00  -0.00     0.00   0.00   0.00     0.01   0.00   0.00
  44   6    -0.00  -0.01  -0.00     0.00   0.00   0.00     0.00   0.00   0.00
  45   6     0.00   0.00   0.00    -0.00   0.00   0.00    -0.00   0.00   0.00
  46   7     0.00   0.00   0.00     0.00   0.00   0.00     0.00   0.00   0.00
  47   6    -0.00  -0.00  -0.00     0.00   0.00   0.00     0.00   0.00   0.00
  48   6    -0.00   0.00   0.00    -0.00   0.00   0.00    -0.00   0.00   0.00
  49   6     0.00  -0.00  -0.00    -0.00   0.00   0.00    -0.00  -0.00  -0.00
  50   6     0.00  -0.00  -0.00    -0.00   0.00   0.00    -0.00   0.00   0.00
  51   6    -0.00   0.00  -0.00    -0.00   0.00   0.00    -0.00   0.00   0.00
  52   7     0.00  -0.00  -0.00    -0.00   0.00   0.00    -0.00   0.00   0.00
  53   6    -0.00   0.00   0.00     0.00  -0.00  -0.00     0.00  -0.00   0.00
  54   6    -0.00  -0.00  -0.00    -0.00  -0.00  -0.00    -0.00  -0.00  -0.00
  55   6     0.00   0.00   0.00     0.00  -0.00   0.00     0.00  -0.00  -0.00
  56   6     0.00   0.00   0.00     0.00   0.00   0.00    -0.00  -0.00  -0.00
  57   6     0.00  -0.00  -0.00    -0.00  -0.00   0.00    -0.00  -0.00  -0.00
  58   7     0.00   0.00   0.00    -0.00  -0.00  -0.00    -0.00  -0.00  -0.00
  59   6    -0.00   0.00   0.00     0.00  -0.00  -0.00     0.00  -0.00  -0.00
  60   6     0.00   0.00   0.00    -0.00  -0.00  -0.00    -0.00  -0.00  -0.00
  61   7     0.00  -0.00  -0.00    -0.00   0.00   0.00    -0.00  -0.00  -0.00
  62   1     0.04  -0.31  -0.15    -0.00   0.03   0.01    -0.00   0.03   0.01
  63   1     0.69  -0.06  -0.05    -0.07   0.01   0.01    -0.07   0.01   0.00
  64   1     0.06   0.01   0.01    -0.01  -0.00  -0.00    -0.02  -0.00  -0.00
  65   1     0.00   0.03   0.02    -0.00  -0.00  -0.00    -0.00  -0.01  -0.00
  66   1    -0.00   0.00   0.00     0.00  -0.00  -0.00     0.00  -0.00  -0.00
  67   1    -0.00   0.00   0.00     0.00  -0.00  -0.00    -0.00   0.00   0.00
  68   1    -0.00   0.00   0.00     0.00  -0.00  -0.00     0.00  -0.00   0.00
  69   1     0.00  -0.00   0.00    -0.00  -0.00  -0.00    -0.00   0.00  -0.00
  70   1    -0.00  -0.00  -0.00    -0.00  -0.00  -0.00    -0.00  -0.00  -0.00
  71   1    -0.00  -0.01  -0.00    -0.00  -0.00  -0.00     0.00   0.00   0.00
  72   1    -0.00  -0.00  -0.00     0.00   0.00   0.00     0.00   0.00   0.00
  73   6     0.00  -0.00  -0.00    -0.00  -0.00  -0.00     0.00   0.00  -0.00
  74   6     0.00   0.00  -0.00     0.00   0.00  -0.00     0.00  -0.00   0.00
  75   6     0.00  -0.00  -0.00     0.00   0.00   0.00     0.00   0.00   0.00
  76   6     0.00   0.00   0.00    -0.00  -0.00  -0.00     0.00  -0.00  -0.00
  77  29     0.00   0.00   0.00     0.00  -0.00   0.00     0.00   0.00  -0.00
  78   6    -0.00  -0.00  -0.00     0.00   0.04   0.00    -0.00  -0.09  -0.00
  79   6    -0.01  -0.00  -0.00     0.08   0.01   0.00    -0.16  -0.02  -0.01
  80   6    -0.00   0.00   0.00     0.00  -0.00  -0.00    -0.00   0.01   0.00
  81   6    -0.00   0.00   0.00    -0.00   0.00   0.00    -0.00  -0.00  -0.00
  82   6    -0.00  -0.00  -0.00    -0.00  -0.01  -0.00    -0.00  -0.00  -0.00
  83   6    -0.03   0.00   0.00    -0.19   0.01   0.01    -0.07   0.01   0.00
  84   6    -0.00   0.01   0.00    -0.00   0.10   0.01    -0.00   0.04   0.00
  85   6     0.00   0.00  -0.00     0.00   0.00  -0.00     0.00   0.00  -0.00
  86   7     0.00  -0.00  -0.00     0.00  -0.00  -0.00     0.00  -0.00  -0.00
  87   6    -0.00  -0.00   0.00    -0.00   0.00   0.00    -0.00   0.00   0.00
  88   6     0.00  -0.00  -0.00    -0.00  -0.00   0.00    -0.00  -0.00   0.00
  89   6    -0.00  -0.08   0.00     0.00   0.01  -0.00     0.00   0.01  -0.00
  90   6    -0.14  -0.01   0.01     0.02   0.00  -0.00     0.01   0.00  -0.00
  91   6    -0.00   0.00   0.00     0.00  -0.00   0.00     0.00  -0.00  -0.00
  92   7     0.00   0.00  -0.00    -0.00  -0.00   0.00     0.00   0.00   0.00
  93   6    -0.00  -0.00  -0.00     0.00   0.00  -0.00    -0.00   0.00   0.00
  94   6    -0.00  -0.00   0.00    -0.00  -0.00   0.00     0.00   0.00  -0.00
  95   6    -0.01   0.00  -0.00    -0.00  -0.00  -0.00     0.01  -0.00   0.00
  96   6    -0.00   0.00  -0.00     0.00   0.00  -0.00     0.00  -0.01   0.00
  97   6     0.00  -0.00   0.00     0.00   0.00   0.00    -0.00   0.00  -0.00
  98   7    -0.00   0.00  -0.00     0.00  -0.00  -0.00     0.00  -0.00  -0.00
  99   6    -0.00   0.00  -0.00     0.00   0.00   0.00    -0.00  -0.00  -0.00
 100   6     0.00  -0.00   0.00    -0.00   0.00  -0.00     0.00  -0.00   0.00
 101   7     0.00   0.00  -0.00    -0.00  -0.00  -0.00     0.00   0.00   0.00
 102   1     0.00   0.01   0.00    -0.01  -0.12  -0.01     0.02   0.26   0.01
 103   1     0.03   0.00   0.00    -0.25  -0.03  -0.01     0.53   0.07   0.03
 104   1     0.10  -0.01  -0.01     0.63  -0.07  -0.03     0.24  -0.02  -0.01
 105   1     0.01  -0.05  -0.00     0.03  -0.31  -0.02     0.01  -0.12  -0.01
 106   1    -0.00   0.00   0.00    -0.00  -0.01  -0.00    -0.00  -0.00  -0.00
 107   1     0.02   0.24  -0.00    -0.00  -0.04   0.00    -0.00  -0.03   0.00
 108   1     0.47   0.06  -0.03    -0.07  -0.01   0.00    -0.05  -0.01   0.00
 109   1     0.02  -0.00   0.00     0.00  -0.00   0.00    -0.03   0.00  -0.00
 110   1     0.00  -0.01   0.00     0.00  -0.00   0.00    -0.00   0.02  -0.00
 111   1    -0.00  -0.00   0.00     0.00  -0.00  -0.00    -0.00   0.00   0.00
