      -----------------------------------------------------------      
     |                   =====================                   |     
     |                           x T B                           |     
     |                   =====================                   |     
     |                         S. Grimme                         |     
     |          Mulliken Center for Theoretical Chemistry        |     
     |                    University of Bonn                     |     
      -----------------------------------------------------------      

   * xtb version 6.4.1 (bd6e46d) compiled by 'conda@4901f00b25ba' on 2021-06-10

   xtb is free software: you can redistribute it and/or modify it under
   the terms of the GNU Lesser General Public License as published by
   the Free Software Foundation, either version 3 of the License, or
   (at your option) any later version.
   
   xtb is distributed in the hope that it will be useful,
   but WITHOUT ANY WARRANTY; without even the implied warranty of
   MERCHANTABILITY or FITNESS FOR A PARTICULAR PURPOSE.  See the
   GNU Lesser General Public License for more details.
   
   Cite this work as:
   * C. Bannwarth, E. Caldeweyher, S. Ehlert, A. Hansen, P. Pracht,
     J. Seibert, S. Spicher, S. Grimme, WIREs Comput. Mol. Sci., 2020, 11,
     e01493. DOI: 10.1002/wcms.1493
   
   for GFN2-xTB:
   * C. Bannwarth, S. Ehlert and S. Grimme., J. Chem. Theory Comput., 2019,
     15, 1652-1671. DOI: 10.1021/acs.jctc.8b01176
   for GFN1-xTB:
   * S. Grimme, C. Bannwarth, P. Shushkov, J. Chem. Theory Comput., 2017,
     13, 1989-2009. DOI: 10.1021/acs.jctc.7b00118
   for GFN0-xTB:
   * P. Pracht, E. Caldeweyher, S. Ehlert, S. Grimme, ChemRxiv, 2019, preprint.
     DOI: 10.26434/chemrxiv.8326202.v1
   for GFN-FF:
   * S. Spicher and S. Grimme, Angew. Chem. Int. Ed., 2020, 59, 15665-15673.
     DOI: 10.1002/anie.202004239
   
   for DFT-D4:
   * E. Caldeweyher, C. Bannwarth and S. Grimme, J. Chem. Phys., 2017,
     147, 034112. DOI: 10.1063/1.4993215
   * E. Caldeweyher, S. Ehlert, A. Hansen, H. Neugebauer, S. Spicher,
     C. Bannwarth and S. Grimme, J. Chem. Phys., 2019, 150, 154122.
     DOI: 10.1063/1.5090222
   * E. Caldeweyher, J.-M. Mewes, S. Ehlert and S. Grimme, Phys. Chem. Chem. Phys.
     2020, 22, 8499-8512. DOI: 10.1039/D0CP00502A
   
   for sTDA-xTB:
   * S. Grimme and C. Bannwarth, J. Chem. Phys., 2016, 145, 054103.
     DOI: 10.1063/1.4959605
   
   in the mass-spec context:
   * V. Asgeirsson, C. Bauer and S. Grimme, Chem. Sci., 2017, 8, 4879.
     DOI: 10.1039/c7sc00601b
   * J. Koopman and S. Grimme, ACS Omega 2019, 4, 12, 15120-15133.
     DOI: 10.1021/acsomega.9b02011
   
   for metadynamics refer to:
   * S. Grimme, J. Chem. Theory Comput., 2019, 155, 2847-2862
     DOI: 10.1021/acs.jctc.9b00143
   
   for SPH calculations refer to:
   * S. Spicher and S. Grimme, J. Chem. Theory Comput., 2021, 17, 1701-1714
     DOI: 10.1021/acs.jctc.0c01306
   
   with help from (in alphabetical order)
   P. Atkinson, C. Bannwarth, F. Bohle, G. Brandenburg, E. Caldeweyher
   M. Checinski, S. Dohm, S. Ehlert, S. Ehrlich, I. Gerasimov, J. Koopman
   C. Lavigne, S. Lehtola, F. März, M. Müller, F. Musil, H. Neugebauer
   J. Pisarek, C. Plett, P. Pracht, J. Seibert, P. Shushkov, S. Spicher
   M. Stahn, M. Steiner, T. Strunk, J. Stückrath, T. Rose, and J. Unsleber
   
 * started run on 2021/11/19 at 11:11:07.522     

           -------------------------------------------------
          |                Calculation Setup                |
           -------------------------------------------------

          program call               : /home/jeff/miniconda3/bin/xtb input_structure_1.xyz --gfn 2 --ohess normal --parallel 1 --etemp 300 --chrg 0 --uhf 0 -I det_control.in
          hostname                   : jelfscompute1
          coordinate file            : input_structure_1.xyz
          omp threads                :                     1
          number of atoms            :                   111
          number of electrons        :                   381
          charge                     :                     0
          spin                       :                   0.5
          first test random number   :      0.46112103220057

   ID    Z sym.   atoms
    1   29 Cu     1, 37, 77
    2    6 C      2-9, 11-15, 17-21, 23, 24, 38-45, 47-51, 53-57, 59, 60,
                  73-76, 78-85, 87-91, 93-97, 99, 100
    3    7 N      10, 16, 22, 25, 46, 52, 58, 61, 86, 92, 98, 101
    4    1 H      26-36, 62-72, 102-111

molecular fragmentation (1/2 indicates fragments):
111111111111111111111111111111111111222222222222222222222222222222222222
222222222222222222222222222222222222222
# atoms in fragment 1/2:    36    75
 fragment masses (1/2) :      370.87      788.78
CMA distance (Bohr)    :  33.584
constraining FC (au)   :  0.0500

           -------------------------------------------------
          |                 G F N 2 - x T B                 |
           -------------------------------------------------

        Reference                      10.1021/acs.jctc.8b01176
      * Hamiltonian:
        H0-scaling (s, p, d)           1.850000    2.230000    2.230000
        zeta-weighting                 0.500000
      * Dispersion:
        s8                             2.700000
        a1                             0.520000
        a2                             5.000000
        s9                             5.000000
      * Repulsion:
        kExp                           1.500000    1.000000
        rExp                           1.000000
      * Coulomb:
        alpha                          2.000000
        third order                    shell-resolved
        anisotropic                    true
        a3                             3.000000
        a5                             4.000000
        cn-shift                       1.200000
        cn-exp                         4.000000
        max-rad                        5.000000


          ...................................................
          :                      SETUP                      :
          :.................................................:
          :  # basis functions                 366          :
          :  # atomic orbitals                 363          :
          :  # shells                          193          :
          :  # electrons                       381          :
          :  max. iterations                   250          :
          :  Hamiltonian                  GFN2-xTB          :
          :  restarted?                      false          :
          :  GBSA solvation                  false          :
          :  PC potential                    false          :
          :  electronic temp.          300.0000000     K    :
          :  accuracy                    1.0000000          :
          :  -> integral cutoff          0.2500000E+02      :
          :  -> integral neglect         0.1000000E-07      :
          :  -> SCF convergence          0.1000000E-05 Eh   :
          :  -> wf. convergence          0.1000000E-03 e    :
          :  Broyden damping             0.4000000          :
          ...................................................

 iter      E             dE          RMSdq      gap      omega  full diag
   1   -202.6012501 -0.202601E+03  0.537E+00    0.08       0.0  T
   2   -202.2938379  0.307412E+00  0.321E+00    0.00       1.0  T
   3   -162.6080605  0.396858E+02  0.104E+01    0.16       1.0  T
   4   -201.2603323 -0.386523E+02  0.345E+00    0.04       1.0  T
   5   -199.6609288  0.159940E+01  0.251E+00    0.10       1.0  T
   6   -199.6625021 -0.157332E-02  0.229E+00    0.14       1.0  T
   7   -202.0701672 -0.240767E+01  0.148E+00    0.07       1.0  T
   8   -202.5334330 -0.463266E+00  0.102E+00    0.17       1.0  T
   9   -202.5474590 -0.140260E-01  0.845E-01    0.01       1.0  T
  10   -202.4657966  0.816624E-01  0.743E-01    0.05       1.0  T
  11   -202.6461016 -0.180305E+00  0.564E-01    0.15       1.0  T
  12   -202.5734284  0.726732E-01  0.626E-01    0.02       1.0  T
  13   -202.6823785 -0.108950E+00  0.419E-01    0.18       1.0  T
  14   -202.6870468 -0.466835E-02  0.344E-01    0.07       1.0  T
  15   -202.7124679 -0.254211E-01  0.239E-01    0.05       1.0  T
  16   -202.7202104 -0.774252E-02  0.254E-01    0.04       1.0  T
  17   -202.7252063 -0.499589E-02  0.204E-01    0.03       1.0  T
  18   -202.7359096 -0.107033E-01  0.140E-01    0.06       1.0  T
  19   -202.7364749 -0.565310E-03  0.129E-01    0.05       1.0  T
  20   -202.7406659 -0.419098E-02  0.817E-02    0.05       1.0  T
  21   -202.7417115 -0.104559E-02  0.557E-02    0.05       1.0  T
  22   -202.7414201  0.291429E-03  0.538E-02    0.05       1.0  T
  23   -202.7419077 -0.487657E-03  0.411E-02    0.05       1.0  T
  24   -202.7388349  0.307285E-02  0.797E-02    0.04       1.0  T
  25   -202.7415146 -0.267974E-02  0.346E-02    0.05       1.0  T
  26   -202.7417023 -0.187681E-03  0.319E-02    0.05       1.0  T
  27   -202.7420142 -0.311873E-03  0.119E-02    0.05       1.0  T
  28   -202.7420501 -0.359545E-04  0.919E-03    0.05       1.0  T
  29   -202.7420405  0.961977E-05  0.853E-03    0.05       1.1  T
  30   -202.7420678 -0.273312E-04  0.352E-03    0.05       2.7  T
  31   -202.7420608  0.698864E-05  0.509E-03    0.05       1.9  T
  32   -202.7420690 -0.821150E-05  0.237E-03    0.05       4.0  T
  33   -202.7420694 -0.315105E-06  0.150E-03    0.05       6.3  T
  34   -202.7420695 -0.189318E-06  0.794E-04    0.05      12.0  T
  35   -202.7420693  0.202402E-06  0.851E-04    0.05      11.2  T

   *** convergence criteria satisfied after 35 iterations ***

         #    Occupation            Energy/Eh            Energy/eV
      -------------------------------------------------------------
         1        2.0000           -0.6813578             -18.5407
       ...           ...                  ...                  ...
       185        2.0000           -0.3608407              -9.8190
       186        2.0000           -0.3585241              -9.7559
       187        2.0000           -0.3576602              -9.7324
       188        2.0000           -0.3554354              -9.6719
       189        2.0000           -0.3553894              -9.6706
       190        1.2913           -0.3322750              -9.0417
       191        1.2226           -0.3321122              -9.0372 (HOMO)
       192        0.4821           -0.3303464              -8.9892 (LUMO)
       193        0.0026           -0.3250038              -8.8438
       194        0.0014           -0.3243807              -8.8268
       195                         -0.3136807              -8.5357
       196                         -0.3133416              -8.5265
       ...                                ...                  ...
       363                          1.2697239              34.5509
      -------------------------------------------------------------
                  HL-Gap            0.0017658 Eh            0.0481 eV
             Fermi-level           -0.3316060 Eh           -9.0235 eV

 SCC (total)                   0 d,  0 h,  0 min,  1.154 sec
 SCC setup                      ...        0 min,  0.002 sec (  0.197%)
 Dispersion                     ...        0 min,  0.005 sec (  0.408%)
 classical contributions        ...        0 min,  0.001 sec (  0.064%)
 integral evaluation            ...        0 min,  0.045 sec (  3.916%)
 iterations                     ...        0 min,  0.957 sec ( 82.933%)
 molecular gradient             ...        0 min,  0.141 sec ( 12.232%)
 printout                       ...        0 min,  0.003 sec (  0.248%)

         :::::::::::::::::::::::::::::::::::::::::::::::::::::
         ::                     SUMMARY                     ::
         :::::::::::::::::::::::::::::::::::::::::::::::::::::
         :: total energy            -199.324893775025 Eh    ::
         :: gradient norm              0.605675498269 Eh/a0 ::
         :: HOMO-LUMO gap              0.048050855829 eV    ::
         ::.................................................::
         :: SCC energy              -202.742069344968 Eh    ::
         :: -> isotropic ES            0.113488019689 Eh    ::
         :: -> anisotropic ES          0.029284682777 Eh    ::
         :: -> anisotropic XC          0.096855107250 Eh    ::
         :: -> dispersion             -0.171534006037 Eh    ::
         :: repulsion energy           3.416410962489 Eh    ::
         :: add. restraining           0.000000000000 Eh    ::
         :: total charge               0.000000000067 e     ::
         :::::::::::::::::::::::::::::::::::::::::::::::::::::

      ----------------------------------------------------------- 
     |                   =====================                   |
     |                        A N C O P T                        |
     |                   =====================                   |
     |               Approximate Normal Coordinate               |
     |                Rational Function Optimizer                |
      ----------------------------------------------------------- 

          ...................................................
          :                      SETUP                      :
          :.................................................:
          :   optimization level            normal          :
          :   max. optcycles                   333          :
          :   ANC micro-cycles                  20          :
          :   degrees of freedom               327          :
          :.................................................:
          :   RF solver                   davidson          :
          :   write xtbopt.log                true          :
          :   linear?                        false          :
          :   energy convergence         0.5000000E-05 Eh   :
          :   grad. convergence          0.1000000E-02 Eh/α :
          :   maximium RF displ.         1.0000000          :
          :   Hlow (freq-cutoff)         0.1000000E-01      :
          :   Hmax (freq-cutoff)         5.0000000          :
          :   S6 in model hess.         20.0000000          :
          ...................................................

generating ANC from model Hessian ...
Using Lindh-Hessian (1995)
 Shifting diagonal of input Hessian by    1.0027402895831258E-002
 Lowest  eigenvalues of input Hessian
    0.010000    0.010007    0.010008    0.010014    0.010018    0.010021
    0.000000    0.000000    0.000000    0.000000    0.000000    0.000000
    0.010035    0.010041    0.010088    0.010103    0.010163    0.010248
 Highest eigenvalues
    2.188935    2.188935    2.203902    2.203904    2.393223    2.512586


........................................................................
.............................. CYCLE    1 ..............................
........................................................................
   1   -202.7420696 -0.202742E+03  0.338E-04    0.05       0.0  T
   2   -202.7420231  0.465259E-04  0.906E-03    0.05       1.0  T
   3   -202.7420696 -0.465306E-04  0.396E-04    0.05      24.0  T
   4   -202.7420696  0.304243E-07  0.426E-04    0.05      22.3  T
   5   -202.7420696  0.127774E-07  0.449E-04    0.05      21.1  T
     SCC iter.                  ...        0 min,  0.133 sec
     gradient                   ...        0 min,  0.141 sec
 * total energy  :  -199.3248940 Eh     change       -0.2214313E-06 Eh
   gradient norm :     0.6056779 Eh/α   predicted     0.0000000E+00 (-100.00%)
   displ. norm   :     0.5500369 α      lambda       -0.2415374E+00
   maximum displ.:     0.1950168 α      in ANC's #111, #130, #112, ...

........................................................................
.............................. CYCLE    2 ..............................
........................................................................
   1   -202.7156318 -0.202716E+03  0.457E-01    0.05       0.0  T
   2   -202.5920683  0.123563E+00  0.711E-01    0.05       1.0  T
   3   -202.4270326  0.165036E+00  0.837E-01    0.06       1.0  T
   4   -202.2810267  0.146006E+00  0.902E-01    0.14       1.0  T
   5   -202.5221346 -0.241108E+00  0.586E-01    0.01       1.0  T
   6   -202.4512153  0.709193E-01  0.775E-01    0.13       1.0  T
   7   -202.6771903 -0.225975E+00  0.378E-01    0.11       1.0  T
   8   -202.6810174 -0.382711E-02  0.347E-01    0.00       1.0  T
   9   -202.7150762 -0.340588E-01  0.232E-01    0.09       1.0  T
  10   -202.7242378 -0.916159E-02  0.173E-01    0.08       1.0  T
  11   -202.7323353 -0.809748E-02  0.106E-01    0.06       1.0  T
  12   -202.7260441  0.629116E-02  0.141E-01    0.05       1.0  T
  13   -202.7346974 -0.865322E-02  0.473E-02    0.04       1.0  T
  14   -202.7307433  0.395406E-02  0.932E-02    0.04       1.0  T
  15   -202.7315523 -0.808979E-03  0.814E-02    0.04       1.0  T
  16   -202.7344289 -0.287667E-02  0.439E-02    0.04       1.0  T
  17   -202.7333848  0.104411E-02  0.585E-02    0.04       1.0  T
  18   -202.7353230 -0.193820E-02  0.105E-02    0.05       1.0  T
  19   -202.7352951  0.279442E-04  0.110E-02    0.05       1.0  T
  20   -202.7353133 -0.181665E-04  0.905E-03    0.05       1.0  T
  21   -202.7352528  0.605030E-04  0.133E-02    0.05       1.0  T
  22   -202.7353265 -0.737043E-04  0.620E-03    0.05       1.5  T
  23   -202.7353439 -0.174154E-04  0.135E-03    0.05       7.1  T
  24   -202.7353431  0.782300E-06  0.171E-03    0.05       5.6  T
  25   -202.7353444 -0.126086E-05  0.527E-04    0.05      18.0  T
  26   -202.7353442  0.162127E-06  0.721E-04    0.05      13.2  T
  27   -202.7353444 -0.223816E-06  0.237E-04    0.05      40.0  T
     SCC iter.                  ...        0 min,  0.703 sec
     gradient                   ...        0 min,  0.141 sec
 * total energy  :  -199.5131001 Eh     change       -0.1882061E+00 Eh
   gradient norm :     0.3184449 Eh/α   predicted    -0.1573908E+00 ( -16.37%)
   displ. norm   :     0.6384495 α      lambda       -0.1469260E+00
   maximum displ.:     0.2558920 α      in ANC's #111, #112, #130, ...

........................................................................
.............................. CYCLE    3 ..............................
........................................................................
   1   -202.6984095 -0.202698E+03  0.709E-01    0.07       0.0  T
   2   -202.0209510  0.677459E+00  0.153E+00    0.24       1.0  T
   3   -202.4177778 -0.396827E+00  0.996E-01    0.16       1.0  T
   4   -202.4691527 -0.513749E-01  0.765E-01    0.04       1.0  T
   5   -202.3286911  0.140462E+00  0.855E-01    0.39       1.0  T
   6   -202.7419209 -0.413230E+00  0.338E-01    0.08       1.0  T
   7   -202.5478318  0.194089E+00  0.708E-01    0.06       1.0  T
   8   -202.7365359 -0.188704E+00  0.322E-01    0.09       1.0  T
   9   -202.7370215 -0.485579E-03  0.339E-01    0.09       1.0  T
  10   -202.7561781 -0.191566E-01  0.255E-01    0.02       1.0  T
  11   -202.7699427 -0.137647E-01  0.168E-01    0.05       1.0  T
  12   -202.7672486  0.269411E-02  0.181E-01    0.09       1.0  T
  13   -202.7721094 -0.486082E-02  0.143E-01    0.08       1.0  T
  14   -202.7793285 -0.721904E-02  0.668E-02    0.05       1.0  T
  15   -202.7795707 -0.242173E-03  0.487E-02    0.04       1.0  T
  16   -202.7802599 -0.689279E-03  0.334E-02    0.04       1.0  T
  17   -202.7796141  0.645859E-03  0.497E-02    0.04       1.0  T
  18   -202.7803098 -0.695707E-03  0.314E-02    0.04       1.0  T
  19   -202.7805773 -0.267559E-03  0.193E-02    0.04       1.0  T
  20   -202.7806777 -0.100345E-03  0.926E-03    0.04       1.0  T
  21   -202.7806688  0.890533E-05  0.843E-03    0.05       1.1  T
  22   -202.7806812 -0.123832E-04  0.767E-03    0.05       1.2  T
  23   -202.7807062 -0.250378E-04  0.244E-03    0.05       3.9  T
  24   -202.7807090 -0.280015E-05  0.128E-03    0.05       7.4  T
  25   -202.7807080  0.104109E-05  0.173E-03    0.05       5.5  T
  26   -202.7807095 -0.155042E-05  0.629E-04    0.05      15.1  T
  27   -202.7807096 -0.123292E-06  0.429E-04    0.05      22.1  T
  28   -202.7807097 -0.101426E-06  0.155E-04    0.05      61.1  T
     SCC iter.                  ...        0 min,  0.730 sec
     gradient                   ...        0 min,  0.141 sec
 * total energy  :  -199.6210252 Eh     change       -0.1079251E+00 Eh
   gradient norm :     0.1213625 Eh/α   predicted    -0.1034078E+00 (  -4.19%)
   displ. norm   :     0.7143786 α      lambda       -0.7012147E-01
   maximum displ.:     0.2647732 α      in ANC's #111, #57, #58, ...

........................................................................
.............................. CYCLE    4 ..............................
........................................................................
   1   -202.6944404 -0.202694E+03  0.850E-01    0.08       0.0  T
   2   -200.6820737  0.201237E+01  0.248E+00    0.04       1.0  T
   3   -202.5299090 -0.184784E+01  0.962E-01    0.07       1.0  T
   4   -202.4483064  0.816026E-01  0.876E-01    0.06       1.0  T
   5   -202.3978788  0.504276E-01  0.827E-01    0.24       1.0  T
   6   -202.6529700 -0.255091E+00  0.561E-01    0.02       1.0  T
   7   -202.6062661  0.467038E-01  0.686E-01    0.02       1.0  T
   8   -202.6993354 -0.930693E-01  0.468E-01    0.00       1.0  T
   9   -202.6461351  0.532003E-01  0.588E-01    0.02       1.0  T
  10   -202.7024816 -0.563465E-01  0.547E-01    0.01       1.0  T
  11   -202.8296662 -0.127185E+00  0.178E-01    0.05       1.0  T
  12   -202.8188322  0.108340E-01  0.216E-01    0.07       1.0  T
  13   -202.8022923  0.165399E-01  0.257E-01    0.05       1.0  T
  14   -202.8319449 -0.296526E-01  0.116E-01    0.04       1.0  T
  15   -202.8360647 -0.411988E-02  0.858E-02    0.03       1.0  T
  16   -202.8372749 -0.121014E-02  0.672E-02    0.03       1.0  T
  17   -202.8391222 -0.184730E-02  0.331E-02    0.04       1.0  T
  18   -202.8395172 -0.395002E-03  0.232E-02    0.04       1.0  T
  19   -202.8394793  0.378974E-04  0.201E-02    0.03       1.0  T
  20   -202.8391131  0.366179E-03  0.319E-02    0.03       1.0  T
  21   -202.8394630 -0.349911E-03  0.203E-02    0.03       1.0  T
  22   -202.8394494  0.136263E-04  0.181E-02    0.04       1.0  T
  23   -202.8394908 -0.414162E-04  0.165E-02    0.04       1.0  T
  24   -202.8396101 -0.119263E-03  0.990E-03    0.04       1.0  T
  25   -202.8396499 -0.397924E-04  0.432E-03    0.04       2.2  T
  26   -202.8396626 -0.126926E-04  0.166E-03    0.04       5.7  T
  27   -202.8396625  0.106263E-07  0.138E-03    0.04       6.9  T
  28   -202.8396630 -0.502975E-06  0.633E-04    0.04      15.0  T
  29   -202.8396622  0.834423E-06  0.121E-03    0.04       7.8  T
  30   -202.8396628 -0.551180E-06  0.846E-04    0.04      11.2  T
     SCC iter.                  ...        0 min,  0.783 sec
     gradient                   ...        0 min,  0.141 sec
 * total energy  :  -199.6777082 Eh     change       -0.5668292E-01 Eh
   gradient norm :     0.0747796 Eh/α   predicted    -0.5295365E-01 (  -6.58%)
   displ. norm   :     0.7910576 α      lambda       -0.4928935E-01
   maximum displ.:     0.2929043 α      in ANC's #57, #111, #35, ...

........................................................................
.............................. CYCLE    5 ..............................
........................................................................
   1   -202.7764055 -0.202776E+03  0.747E-01    0.04       0.0  T
   2   -200.7195379  0.205687E+01  0.241E+00    0.02       1.0  T
   3   -202.7033543 -0.198382E+01  0.783E-01    0.02       1.0  T
   4   -202.6196355  0.837187E-01  0.826E-01    0.05       1.0  T
   5   -202.4935957  0.126040E+00  0.781E-01    0.11       1.0  T
   6   -202.4524979  0.410978E-01  0.782E-01    0.19       1.0  T
   7   -202.7839914 -0.331493E+00  0.540E-01    0.00       1.0  T
   8   -202.8634487 -0.794573E-01  0.274E-01    0.01       1.0  T
   9   -202.7932284  0.702203E-01  0.422E-01    0.01       1.0  T
  10   -202.6544445  0.138784E+00  0.636E-01    0.04       1.0  T
  11   -202.8162395 -0.161795E+00  0.339E-01    0.02       1.0  T
  12   -202.8709613 -0.547218E-01  0.195E-01    0.02       1.0  T
  13   -202.8652413  0.571997E-02  0.242E-01    0.02       1.0  T
  14   -202.8778991 -0.126578E-01  0.147E-01    0.01       1.0  T
  15   -202.8740220  0.387708E-02  0.140E-01    0.01       1.0  T
  16   -202.8808081 -0.678611E-02  0.116E-01    0.01       1.0  T
  17   -202.8781872  0.262088E-02  0.127E-01    0.02       1.0  T
  18   -202.8868402 -0.865296E-02  0.382E-02    0.03       1.0  T
  19   -202.8869525 -0.112285E-03  0.269E-02    0.03       1.0  T
  20   -202.8871780 -0.225489E-03  0.167E-02    0.03       1.0  T
  21   -202.8873092 -0.131185E-03  0.785E-03    0.03       1.2  T
  22   -202.8873033  0.591206E-05  0.697E-03    0.03       1.4  T
  23   -202.8873265 -0.232650E-04  0.225E-03    0.03       4.2  T
  24   -202.8872826  0.438925E-04  0.796E-03    0.03       1.2  T
  25   -202.8873255 -0.428600E-04  0.242E-03    0.03       3.9  T
  26   -202.8873197  0.578354E-05  0.436E-03    0.03       2.2  T
  27   -202.8873278 -0.808502E-05  0.159E-03    0.03       6.0  T
  28   -202.8873249  0.293131E-05  0.260E-03    0.03       3.6  T
  29   -202.8873288 -0.391533E-05  0.894E-04    0.03      10.6  T
  30   -202.8873291 -0.366207E-06  0.394E-04    0.03      24.1  T
  31   -202.8873292 -0.273404E-07  0.256E-04    0.03      37.1  T
     SCC iter.                  ...        0 min,  0.810 sec
     gradient                   ...        0 min,  0.141 sec
 * total energy  :  -199.7202492 Eh     change       -0.4254101E-01 Eh
   gradient norm :     0.0677258 Eh/α   predicted    -0.4006662E-01 (  -5.82%)
   displ. norm   :     0.8488638 α      lambda       -0.4071853E-01
   maximum displ.:     0.3130066 α      in ANC's #57, #35, #33, ...

........................................................................
.............................. CYCLE    6 ..............................
........................................................................
   1   -202.8862873 -0.202886E+03  0.488E-01    0.01       0.0  T
   2   -201.7252737  0.116101E+01  0.179E+00    0.12       1.0  T
   3   -202.4686428 -0.743369E+00  0.855E-01    0.13       1.0  T
   4   -202.4493398  0.193030E-01  0.817E-01    0.21       1.0  T
   5   -202.5660132 -0.116673E+00  0.826E-01    0.05       1.0  T
   6   -202.7835863 -0.217573E+00  0.586E-01    0.07       1.0  T
   7   -202.6310554  0.152531E+00  0.649E-01    0.06       1.0  T
   8   -202.8851882 -0.254133E+00  0.350E-01    0.02       1.0  T
   9   -202.7252457  0.159943E+00  0.528E-01    0.00       1.0  T
  10   -202.8989839 -0.173738E+00  0.268E-01    0.04       1.0  T
  11   -202.9152077 -0.162238E-01  0.177E-01    0.01       1.0  T
  12   -202.9169167 -0.170899E-02  0.156E-01    0.02       1.0  T
  13   -202.8841292  0.327875E-01  0.282E-01    0.07       1.0  T
  14   -202.8983361 -0.142069E-01  0.225E-01    0.05       1.0  T
  15   -202.9129753 -0.146392E-01  0.144E-01    0.04       1.0  T
  16   -202.9244902 -0.115149E-01  0.518E-02    0.02       1.0  T
  17   -202.9247205 -0.230287E-03  0.415E-02    0.02       1.0  T
  18   -202.9245706  0.149857E-03  0.441E-02    0.02       1.0  T
  19   -202.9241095  0.461126E-03  0.468E-02    0.02       1.0  T
  20   -202.9249846 -0.875129E-03  0.333E-02    0.02       1.0  T
  21   -202.9252582 -0.273630E-03  0.232E-02    0.02       1.0  T
  22   -202.9253656 -0.107351E-03  0.139E-02    0.02       1.0  T
  23   -202.9253815 -0.159080E-04  0.122E-02    0.02       1.0  T
  24   -202.9253905 -0.897434E-05  0.113E-02    0.02       1.0  T
  25   -202.9252984  0.920539E-04  0.164E-02    0.02       1.0  T
  26   -202.9253327 -0.342740E-04  0.149E-02    0.02       1.0  T
  27   -202.9254242 -0.915403E-04  0.771E-03    0.02       1.2  T
  28   -202.9254556 -0.313457E-04  0.173E-03    0.02       5.5  T
  29   -202.9254565 -0.870760E-06  0.127E-03    0.02       7.5  T
  30   -202.9254574 -0.951154E-06  0.400E-04    0.02      23.7  T
  31   -202.9254574 -0.399179E-07  0.231E-04    0.02      41.0  T
     SCC iter.                  ...        0 min,  0.810 sec
     gradient                   ...        0 min,  0.142 sec
 * total energy  :  -199.7574449 Eh     change       -0.3719571E-01 Eh
   gradient norm :     0.0611201 Eh/α   predicted    -0.3502954E-01 (  -5.82%)
   displ. norm   :     0.9214150 α      lambda       -0.3973325E-01
   maximum displ.:     0.3709382 α      in ANC's #35, #33, #10, ...

........................................................................
.............................. CYCLE    7 ..............................
........................................................................
   1   -202.8742137 -0.202874E+03  0.574E-01    0.02       0.0  T
   2   -187.7877188  0.150865E+02  0.769E+00    0.14       1.0  T
   3   -202.4813042 -0.146936E+02  0.998E-01    0.06       1.0  T
   4   -202.3711281  0.110176E+00  0.979E-01    0.14       1.0  T
   5   -202.7579108 -0.386783E+00  0.590E-01    0.04       1.0  T
   6   -202.6916647  0.662461E-01  0.763E-01    0.09       1.0  T
   7   -202.7553227 -0.636581E-01  0.621E-01    0.04       1.0  T
   8   -202.7429288  0.123939E-01  0.594E-01    0.12       1.0  T
   9   -202.8863105 -0.143382E+00  0.349E-01    0.03       1.0  T
  10   -202.8052513  0.810593E-01  0.557E-01    0.08       1.0  T
  11   -202.8496486 -0.443974E-01  0.408E-01    0.02       1.0  T
  12   -202.9018157 -0.521670E-01  0.293E-01    0.04       1.0  T
  13   -202.9359820 -0.341664E-01  0.199E-01    0.04       1.0  T
  14   -202.9381949 -0.221283E-02  0.183E-01    0.01       1.0  T
  15   -202.9501925 -0.119977E-01  0.869E-02    0.01       1.0  T
  16   -202.9546487 -0.445618E-02  0.274E-02    0.01       1.0  T
  17   -202.9546330  0.157764E-04  0.254E-02    0.01       1.0  T
  18   -202.9545954  0.375852E-04  0.291E-02    0.01       1.0  T
  19   -202.9546392 -0.438332E-04  0.252E-02    0.01       1.0  T
  20   -202.9546252  0.139938E-04  0.236E-02    0.01       1.0  T
  21   -202.9546179  0.727866E-05  0.243E-02    0.01       1.0  T
  22   -202.9546139  0.401681E-05  0.221E-02    0.01       1.0  T
  23   -202.9546502 -0.362826E-04  0.208E-02    0.01       1.0  T
  24   -202.9546599 -0.972834E-05  0.188E-02    0.01       1.0  T
  25   -202.9546726 -0.126338E-04  0.159E-02    0.01       1.0  T
  26   -202.9546673  0.521086E-05  0.157E-02    0.01       1.0  T
  27   -202.9546652  0.216251E-05  0.154E-02    0.01       1.0  T
  28   -202.9546867 -0.215211E-04  0.133E-02    0.01       1.0  T
  29   -202.9546759  0.108481E-04  0.128E-02    0.01       1.0  T
  30   -202.9546815 -0.564016E-05  0.111E-02    0.01       1.0  T
  31   -202.9546940 -0.124994E-04  0.693E-03    0.01       1.4  T
  32   -202.9547001 -0.610399E-05  0.180E-03    0.01       5.3  T
  33   -202.9547009 -0.753329E-06  0.105E-03    0.01       9.0  T
  34   -202.9547013 -0.406745E-06  0.111E-03    0.01       8.6  T
  35   -202.9547014 -0.121679E-06  0.855E-04    0.01      11.1  T
  36   -202.9547014 -0.530275E-07  0.271E-04    0.01      35.0  T
     SCC iter.                  ...        0 min,  0.940 sec
     gradient                   ...        0 min,  0.142 sec
 * total energy  :  -199.7980044 Eh     change       -0.4055948E-01 Eh
   gradient norm :     0.0696007 Eh/α   predicted    -0.3673352E-01 (  -9.43%)
   displ. norm   :     0.9067655 α      lambda       -0.4371864E-01
   maximum displ.:     0.4052458 α      in ANC's #35, #10, #33, ...

........................................................................
.............................. CYCLE    8 ..............................
........................................................................
   1   -202.8993915 -0.202899E+03  0.515E-01    0.02       0.0  T
   2   -193.9190333  0.898036E+01  0.630E+00    0.22       1.0  T
   3   -202.4301359 -0.851110E+01  0.105E+00    0.06       1.0  T
   4   -202.3619779  0.681579E-01  0.101E+00    0.08       1.0  T
   5   -202.7401290 -0.378151E+00  0.671E-01    0.01       1.0  T
   6   -202.6160785  0.124050E+00  0.838E-01    0.02       1.0  T
   7   -202.8457313 -0.229653E+00  0.549E-01    0.09       1.0  T
   8   -202.8818050 -0.360737E-01  0.420E-01    0.04       1.0  T
   9   -202.8691996  0.126055E-01  0.432E-01    0.02       1.0  T
  10   -202.8584679  0.107317E-01  0.491E-01    0.06       1.0  T
  11   -202.9076327 -0.491648E-01  0.334E-01    0.02       1.0  T
  12   -202.9545453 -0.469126E-01  0.147E-01    0.02       1.0  T
  13   -202.9208899  0.336554E-01  0.313E-01    0.05       1.0  T
  14   -202.9331810 -0.122910E-01  0.260E-01    0.01       1.0  T
  15   -202.9548633 -0.216823E-01  0.152E-01    0.01       1.0  T
  16   -202.9628030 -0.793974E-02  0.802E-02    0.01       1.0  T
  17   -202.9635756 -0.772562E-03  0.782E-02    0.02       1.0  T
  18   -202.9655842 -0.200863E-02  0.360E-02    0.01       1.0  T
  19   -202.9656768 -0.926087E-04  0.313E-02    0.01       1.0  T
  20   -202.9659012 -0.224395E-03  0.239E-02    0.01       1.0  T
  21   -202.9659049 -0.364742E-05  0.229E-02    0.01       1.0  T
  22   -202.9659195 -0.145914E-04  0.209E-02    0.01       1.0  T
  23   -202.9658915  0.279399E-04  0.229E-02    0.01       1.0  T
  24   -202.9659215 -0.300070E-04  0.201E-02    0.01       1.0  T
  25   -202.9659246 -0.306574E-05  0.186E-02    0.01       1.0  T
  26   -202.9659273 -0.266897E-05  0.175E-02    0.01       1.0  T
  27   -202.9659337 -0.642239E-05  0.160E-02    0.01       1.0  T
  28   -202.9659312  0.245142E-05  0.155E-02    0.01       1.0  T
  29   -202.9659369 -0.565413E-05  0.139E-02    0.01       1.0  T
  30   -202.9659255  0.113885E-04  0.130E-02    0.01       1.0  T
  31   -202.9659307 -0.519676E-05  0.109E-02    0.01       1.0  T
  32   -202.9659461 -0.153899E-04  0.494E-03    0.01       1.9  T
  33   -202.9659500 -0.394736E-05  0.173E-03    0.01       5.5  T
  34   -202.9659506 -0.508707E-06  0.140E-03    0.01       6.8  T
  35   -202.9659509 -0.375287E-06  0.640E-04    0.01      14.8  T
  36   -202.9659510 -0.695563E-07  0.301E-04    0.01      31.6  T
     SCC iter.                  ...        0 min,  0.940 sec
     gradient                   ...        0 min,  0.142 sec
 * total energy  :  -199.8442392 Eh     change       -0.4623484E-01 Eh
   gradient norm :     0.0878610 Eh/α   predicted    -0.3983261E-01 ( -13.85%)
   displ. norm   :     0.8699249 α      lambda       -0.4979221E-01
   maximum displ.:     0.4087296 α      in ANC's #35, #10, #33, ...

........................................................................
.............................. CYCLE    9 ..............................
........................................................................
   1   -202.9148579 -0.202915E+03  0.476E-01    0.01       0.0  T
   2   -194.3506532  0.856420E+01  0.626E+00    0.03       1.0  T
   3   -202.6863956 -0.833574E+01  0.914E-01    0.39       1.0  T
   4   -202.4526648  0.233731E+00  0.957E-01    0.07       1.0  T
   5   -202.6582544 -0.205590E+00  0.780E-01    0.02       1.0  T
   6   -202.8001862 -0.141932E+00  0.602E-01    0.08       1.0  T
   7   -202.7698389  0.303472E-01  0.642E-01    0.04       1.0  T
   8   -202.8530053 -0.831663E-01  0.440E-01    0.08       1.0  T
   9   -202.8946073 -0.416020E-01  0.424E-01    0.06       1.0  T
  10   -202.8383492  0.562582E-01  0.514E-01    0.03       1.0  T
  11   -202.8511202 -0.127710E-01  0.464E-01    0.05       1.0  T
  12   -202.9730898 -0.121970E+00  0.100E-01    0.00       1.0  T
  13   -202.9686147  0.447512E-02  0.125E-01    0.01       1.0  T
  14   -202.9465843  0.220304E-01  0.260E-01    0.03       1.0  T
  15   -202.9747520 -0.281677E-01  0.618E-02    0.01       1.0  T
  16   -202.9596636  0.150884E-01  0.193E-01    0.03       1.0  T
  17   -202.9741468 -0.144832E-01  0.694E-02    0.01       1.0  T
  18   -202.9746629 -0.516121E-03  0.528E-02    0.00       1.0  T
  19   -202.9748989 -0.235975E-03  0.527E-02    0.01       1.0  T
  20   -202.9749484 -0.494907E-04  0.504E-02    0.01       1.0  T
  21   -202.9748785  0.698217E-04  0.512E-02    0.01       1.0  T
  22   -202.9749297 -0.511913E-04  0.489E-02    0.01       1.0  T
  23   -202.9749796 -0.499083E-04  0.466E-02    0.01       1.0  T
  24   -202.9749755  0.408969E-05  0.464E-02    0.01       1.0  T
  25   -202.9749804 -0.481534E-05  0.449E-02    0.01       1.0  T
  26   -202.9750180 -0.376836E-04  0.397E-02    0.01       1.0  T
  27   -202.9751209 -0.102897E-03  0.332E-02    0.01       1.0  T
  28   -202.9751691 -0.481713E-04  0.280E-02    0.00       1.0  T
  29   -202.9751885 -0.193465E-04  0.250E-02    0.00       1.0  T
  30   -202.9752175 -0.290267E-04  0.193E-02    0.00       1.0  T
  31   -202.9752530 -0.355654E-04  0.923E-03    0.00       1.0  T
  32   -202.9752484  0.465024E-05  0.760E-03    0.00       1.2  T
  33   -202.9752555 -0.711473E-05  0.430E-03    0.00       2.2  T
  34   -202.9752574 -0.187883E-05  0.160E-03    0.00       5.9  T
  35   -202.9752574 -0.128574E-07  0.121E-03    0.00       7.8  T
  36   -202.9752579 -0.531395E-06  0.590E-04    0.00      16.1  T
  37   -202.9752579  0.264068E-07  0.347E-04    0.00      27.4  T
     SCC iter.                  ...        0 min,  0.970 sec
     gradient                   ...        0 min,  0.142 sec
 * total energy  :  -199.8943536 Eh     change       -0.5011444E-01 Eh
   gradient norm :     0.0921396 Eh/α   predicted    -0.4373674E-01 ( -12.73%)
   displ. norm   :     0.9299511 α      lambda       -0.6557795E-01
   maximum displ.:     0.4230621 α      in ANC's #35, #10, #33, ...

........................................................................
.............................. CYCLE   10 ..............................
........................................................................
   1   -202.9127156 -0.202913E+03  0.558E-01    0.03       0.0  T
   2   -189.0965101  0.138162E+02  0.731E+00    0.01       1.0  T
   3   -202.3555349 -0.132590E+02  0.111E+00    0.03       1.0  T
   4   -202.3875967 -0.320618E-01  0.101E+00    0.03       1.0  T
   5   -202.8086239 -0.421027E+00  0.667E-01    0.02       1.0  T
   6   -202.8180611 -0.943724E-02  0.630E-01    0.01       1.0  T
   7   -202.8410201 -0.229590E-01  0.620E-01    0.14       1.0  T
   8   -202.8037010  0.373191E-01  0.633E-01    0.11       1.0  T
   9   -202.8250296 -0.213286E-01  0.556E-01    0.06       1.0  T
  10   -202.8893749 -0.643452E-01  0.507E-01    0.03       1.0  T
  11   -202.9533702 -0.639954E-01  0.310E-01    0.04       1.0  T
  12   -202.9943034 -0.409332E-01  0.102E-01    0.01       1.0  T
  13   -202.9696931  0.246103E-01  0.261E-01    0.03       1.0  T
  14   -202.9863343 -0.166412E-01  0.158E-01    0.02       1.0  T
  15   -202.9949336 -0.859930E-02  0.828E-02    0.01       1.0  T
  16   -202.9979138 -0.298020E-02  0.407E-02    0.01       1.0  T
  17   -202.9977200  0.193815E-03  0.430E-02    0.01       1.0  T
  18   -202.9976828  0.372026E-04  0.423E-02    0.00       1.0  T
  19   -202.9979818 -0.298987E-03  0.346E-02    0.01       1.0  T
  20   -202.9980120 -0.302431E-04  0.323E-02    0.01       1.0  T
  21   -202.9980031  0.894525E-05  0.321E-02    0.01       1.0  T
  22   -202.9980021  0.100447E-05  0.313E-02    0.01       1.0  T
  23   -202.9980133 -0.111866E-04  0.291E-02    0.01       1.0  T
  24   -202.9979877  0.255478E-04  0.276E-02    0.01       1.0  T
  25   -202.9980160 -0.283286E-04  0.217E-02    0.01       1.0  T
  26   -202.9980079  0.810648E-05  0.196E-02    0.01       1.0  T
  27   -202.9980635 -0.555553E-04  0.124E-02    0.01       1.0  T
  28   -202.9980719 -0.841544E-05  0.840E-03    0.01       1.1  T
  29   -202.9980764 -0.447379E-05  0.717E-03    0.01       1.3  T
  30   -202.9980689  0.751202E-05  0.547E-03    0.01       1.7  T
  31   -202.9980771 -0.822753E-05  0.314E-03    0.01       3.0  T
  32   -202.9980759  0.118363E-05  0.327E-03    0.01       2.9  T
  33   -202.9980806 -0.467160E-05  0.707E-04    0.01      13.4  T
  34   -202.9980805  0.931680E-07  0.755E-04    0.01      12.6  T
  35   -202.9980806 -0.876118E-07  0.599E-04    0.01      15.8  T
     SCC iter.                  ...        0 min,  0.918 sec
     gradient                   ...        0 min,  0.142 sec
 * total energy  :  -199.9403400 Eh     change       -0.4598632E-01 Eh
   gradient norm :     0.0946984 Eh/α   predicted    -0.6114516E-01 (  32.96%)
   displ. norm   :     0.8020626 α      lambda       -0.3802508E-01
   maximum displ.:     0.3763368 α      in ANC's #10, #35, #33, ...

........................................................................
.............................. CYCLE   11 ..............................
........................................................................
   1   -202.9741743 -0.202974E+03  0.367E-01    0.01       0.0  T
   2   -202.3633802  0.610794E+00  0.113E+00    0.03       1.0  T
   3   -202.7207477 -0.357367E+00  0.818E-01    0.13       1.0  T
   4   -202.7329452 -0.121975E-01  0.737E-01    0.10       1.0  T
   5   -202.8474039 -0.114459E+00  0.539E-01    0.08       1.0  T
   6   -202.7852753  0.621286E-01  0.680E-01    0.13       1.0  T
   7   -202.8212489 -0.359736E-01  0.601E-01    0.14       1.0  T
   8   -202.8130072  0.824174E-02  0.577E-01    0.05       1.0  T
   9   -202.9714858 -0.158479E+00  0.245E-01    0.01       1.0  T
  10   -202.9899526 -0.184668E-01  0.148E-01    0.00       1.0  T
  11   -202.9866666  0.328598E-02  0.172E-01    0.02       1.0  T
  12   -202.9921287 -0.546215E-02  0.125E-01    0.01       1.0  T
  13   -202.9971564 -0.502767E-02  0.855E-02    0.00       1.0  T
  14   -202.9999152 -0.275876E-02  0.335E-02    0.01       1.0  T
  15   -202.9993981  0.517044E-03  0.468E-02    0.00       1.0  T
  16   -202.9998247 -0.426580E-03  0.354E-02    0.00       1.0  T
  17   -203.0001705 -0.345787E-03  0.217E-02    0.00       1.0  T
  18   -203.0002942 -0.123740E-03  0.130E-02    0.00       1.0  T
  19   -203.0003543 -0.600884E-04  0.670E-03    0.00       1.4  T
  20   -203.0003749 -0.206217E-04  0.112E-03    0.00       8.5  T
  21   -203.0003745  0.409062E-06  0.141E-03    0.00       6.7  T
  22   -203.0003670  0.753119E-05  0.440E-03    0.00       2.2  T
  23   -203.0003723 -0.528544E-05  0.266E-03    0.00       3.6  T
  24   -203.0003742 -0.192124E-05  0.156E-03    0.00       6.1  T
  25   -203.0003750 -0.829916E-06  0.778E-04    0.00      12.2  T
  26   -203.0003751 -0.321524E-07  0.701E-04    0.00      13.5  T
     SCC iter.                  ...        0 min,  0.680 sec
     gradient                   ...        0 min,  0.143 sec
 * total energy  :  -199.9692843 Eh     change       -0.2894434E-01 Eh
   gradient norm :     0.0744420 Eh/α   predicted    -0.3124340E-01 (   7.94%)
   displ. norm   :     0.7253476 α      lambda       -0.3839303E-01
   maximum displ.:     0.3285987 α      in ANC's #10, #16, #15, ...

........................................................................
.............................. CYCLE   12 ..............................
........................................................................
   1   -203.0233302 -0.203023E+03  0.511E-01    0.02       0.0  T
   2   -192.4174807  0.106058E+02  0.654E+00    0.23       1.0  T
   3   -202.7500267 -0.103325E+02  0.922E-01    0.12       1.0  T
   4   -202.8614180 -0.111391E+00  0.701E-01    0.04       1.0  T
   5   -202.8310788  0.303392E-01  0.754E-01    0.24       1.0  T
   6   -202.8880239 -0.569451E-01  0.666E-01    0.15       1.0  T
   7   -203.0340775 -0.146054E+00  0.331E-01    0.07       1.0  T
   8   -202.9404541  0.936234E-01  0.538E-01    0.04       1.0  T
   9   -203.0807350 -0.140281E+00  0.146E-01    0.03       1.0  T
  10   -203.0393698  0.413652E-01  0.312E-01    0.03       1.0  T
  11   -203.0877290 -0.483592E-01  0.775E-02    0.02       1.0  T
  12   -203.0849166  0.281240E-02  0.108E-01    0.02       1.0  T
  13   -203.0899126 -0.499602E-02  0.456E-02    0.01       1.0  T
  14   -203.0900041 -0.915008E-04  0.429E-02    0.01       1.0  T
  15   -203.0906083 -0.604214E-03  0.263E-02    0.01       1.0  T
  16   -203.0906632 -0.548827E-04  0.223E-02    0.01       1.0  T
  17   -203.0907302 -0.670682E-04  0.190E-02    0.01       1.0  T
  18   -203.0907793 -0.490797E-04  0.152E-02    0.01       1.0  T
  19   -203.0907539  0.254411E-04  0.174E-02    0.01       1.0  T
  20   -203.0907936 -0.397373E-04  0.133E-02    0.01       1.0  T
  21   -203.0908076 -0.139633E-04  0.116E-02    0.01       1.0  T
  22   -203.0908001  0.746531E-05  0.119E-02    0.01       1.0  T
  23   -203.0908069 -0.678664E-05  0.105E-02    0.01       1.0  T
  24   -203.0907975  0.936523E-05  0.112E-02    0.01       1.0  T
  25   -203.0908144 -0.168962E-04  0.796E-03    0.01       1.2  T
  26   -203.0908139  0.529641E-06  0.743E-03    0.01       1.3  T
  27   -203.0908071  0.683233E-05  0.671E-03    0.01       1.4  T
  28   -203.0908138 -0.676671E-05  0.409E-03    0.01       2.3  T
  29   -203.0908181 -0.427542E-05  0.178E-03    0.01       5.3  T
  30   -203.0908181 -0.223576E-07  0.120E-03    0.01       7.9  T
  31   -203.0908187 -0.562601E-06  0.424E-04    0.01      22.4  T
  32   -203.0908187  0.668791E-08  0.438E-04    0.01      21.7  T
     SCC iter.                  ...        0 min,  0.838 sec
     gradient                   ...        0 min,  0.143 sec
 * total energy  :  -199.9833384 Eh     change       -0.1405409E-01 Eh
   gradient norm :     0.1047796 Eh/α   predicted    -0.2929636E-01 ( 108.45%)
   displ. norm   :     0.7360667 α      lambda       -0.3254065E-01
   maximum displ.:     0.4876733 α      in ANC's #10, #16, #35, ...

........................................................................
.............................. CYCLE   13 ..............................
........................................................................
   1   -203.0913172 -0.203091E+03  0.317E-01    0.02       0.0  T
   2   -200.3270106  0.276431E+01  0.333E+00    0.00       1.0  T
   3   -202.8229884 -0.249598E+01  0.855E-01    0.19       1.0  T
   4   -202.9777911 -0.154803E+00  0.594E-01    0.09       1.0  T
   5   -202.8874177  0.903734E-01  0.681E-01    0.17       1.0  T
   6   -203.0083040 -0.120886E+00  0.512E-01    0.02       1.0  T
   7   -203.0735062 -0.652023E-01  0.337E-01    0.05       1.0  T
   8   -203.0889243 -0.154181E-01  0.258E-01    0.04       1.0  T
   9   -203.1189338 -0.300095E-01  0.598E-02    0.00       1.0  T
  10   -203.1095856  0.934820E-02  0.144E-01    0.01       1.0  T
  11   -203.1136335 -0.404788E-02  0.120E-01    0.01       1.0  T
  12   -203.1196469 -0.601340E-02  0.411E-02    0.00       1.0  T
  13   -203.1196566 -0.973729E-05  0.419E-02    0.00       1.0  T
  14   -203.1201549 -0.498245E-03  0.263E-02    0.01       1.0  T
  15   -203.1201809 -0.259998E-04  0.237E-02    0.00       1.0  T
  16   -203.1202107 -0.298314E-04  0.221E-02    0.00       1.0  T
  17   -203.1201685  0.421671E-04  0.232E-02    0.01       1.0  T
  18   -203.1202188 -0.502392E-04  0.204E-02    0.01       1.0  T
  19   -203.1202125  0.624929E-05  0.193E-02    0.01       1.0  T
  20   -203.1202294 -0.168956E-04  0.175E-02    0.01       1.0  T
  21   -203.1202307 -0.125997E-05  0.156E-02    0.01       1.0  T
  22   -203.1202360 -0.531044E-05  0.123E-02    0.00       1.0  T
  23   -203.1202389 -0.287592E-05  0.105E-02    0.01       1.0  T
  24   -203.1202367  0.214463E-05  0.898E-03    0.01       1.1  T
  25   -203.1202465 -0.979065E-05  0.579E-03    0.01       1.6  T
  26   -203.1202436  0.289914E-05  0.455E-03    0.01       2.1  T
  27   -203.1202500 -0.643166E-05  0.157E-03    0.01       6.1  T
  28   -203.1202506 -0.533033E-06  0.200E-04    0.01      47.4  T
  29   -203.1202506  0.187225E-07  0.249E-04    0.01      38.2  T
     SCC iter.                  ...        0 min,  0.762 sec
     gradient                   ...        0 min,  0.143 sec
 * total energy  :  -200.0084482 Eh     change       -0.2510983E-01 Eh
   gradient norm :     0.0612688 Eh/α   predicted    -0.2508550E-01 (  -0.10%)
   displ. norm   :     0.7854135 α      lambda       -0.2459626E-01
   maximum displ.:     0.5644457 α      in ANC's #10, #16, #15, ...

........................................................................
.............................. CYCLE   14 ..............................
........................................................................
   1   -203.1246480 -0.203125E+03  0.289E-01    0.01       0.0  T
   2   -201.2079933  0.191665E+01  0.283E+00    0.04       1.0  T
   3   -202.9082446 -0.170025E+01  0.757E-01    0.34       1.0  T
   4   -202.9024915  0.575302E-02  0.694E-01    0.09       1.0  T
   5   -203.0888889 -0.186397E+00  0.346E-01    0.05       1.0  T
   6   -203.0606745  0.282144E-01  0.419E-01    0.09       1.0  T
   7   -203.1018861 -0.412116E-01  0.336E-01    0.03       1.0  T
   8   -203.1478802 -0.459941E-01  0.702E-02    0.00       1.0  T
   9   -203.1472172  0.662999E-03  0.690E-02    0.01       1.0  T
  10   -203.1490798 -0.186263E-02  0.361E-02    0.00       1.0  T
  11   -203.1475229  0.155688E-02  0.695E-02    0.01       1.0  T
  12   -203.1493825 -0.185957E-02  0.245E-02    0.00       1.0  T
  13   -203.1495076 -0.125107E-03  0.173E-02    0.00       1.0  T
  14   -203.1495981 -0.905368E-04  0.131E-02    0.00       1.0  T
  15   -203.1495202  0.779766E-04  0.165E-02    0.00       1.0  T
  16   -203.1495778 -0.576550E-04  0.125E-02    0.00       1.0  T
  17   -203.1495857 -0.784702E-05  0.116E-02    0.00       1.0  T
  18   -203.1496223 -0.366192E-04  0.811E-03    0.00       1.2  T
  19   -203.1496209  0.137908E-05  0.675E-03    0.00       1.4  T
  20   -203.1496218 -0.901369E-06  0.549E-03    0.00       1.7  T
  21   -203.1496254 -0.363212E-05  0.423E-03    0.00       2.2  T
  22   -203.1496228  0.261234E-05  0.383E-03    0.00       2.5  T
  23   -203.1496260 -0.316864E-05  0.218E-03    0.00       4.4  T
  24   -203.1496254  0.621110E-06  0.184E-03    0.00       5.2  T
  25   -203.1496261 -0.765585E-06  0.121E-03    0.00       7.8  T
  26   -203.1496264 -0.273144E-06  0.620E-04    0.00      15.3  T
  27   -203.1496264  0.481175E-07  0.494E-04    0.00      19.2  T
     SCC iter.                  ...        0 min,  0.708 sec
     gradient                   ...        0 min,  0.144 sec
 * total energy  :  -200.0239365 Eh     change       -0.1548824E-01 Eh
   gradient norm :     0.0755267 Eh/α   predicted    -0.1988456E-01 (  28.38%)
   displ. norm   :     0.7544887 α      lambda       -0.2317559E-01
   maximum displ.:     0.5485600 α      in ANC's #10, #16, #15, ...

........................................................................
.............................. CYCLE   15 ..............................
........................................................................
   1   -203.1832265 -0.203183E+03  0.212E-01    0.01       0.0  T
   2   -202.8401076  0.343119E+00  0.981E-01    0.23       1.0  T
   3   -203.0348698 -0.194762E+00  0.604E-01    0.09       1.0  T
   4   -203.0481268 -0.132570E-01  0.539E-01    0.02       1.0  T
   5   -203.0960067 -0.478799E-01  0.477E-01    0.03       1.0  T
   6   -203.1059311 -0.992437E-02  0.451E-01    0.07       1.0  T
   7   -203.1922410 -0.863099E-01  0.795E-02    0.01       1.0  T
   8   -203.1889076  0.333338E-02  0.120E-01    0.01       1.0  T
   9   -203.1902417 -0.133409E-02  0.104E-01    0.00       1.0  T
  10   -203.1951146 -0.487289E-02  0.495E-03    0.00       1.9  T
  11   -203.1950698  0.447143E-04  0.102E-02    0.00       1.0  T
  12   -203.1951014 -0.315620E-04  0.680E-03    0.00       1.4  T
  13   -203.1951188 -0.173536E-04  0.184E-03    0.00       5.1  T
  14   -203.1951049  0.138451E-04  0.567E-03    0.00       1.7  T
  15   -203.1951180 -0.131377E-04  0.208E-03    0.00       4.6  T
  16   -203.1951195 -0.146218E-05  0.116E-03    0.00       8.2  T
  17   -203.1951194  0.127474E-06  0.125E-03    0.00       7.6  T
  18   -203.1951200 -0.573265E-06  0.409E-04    0.00      23.2  T
  19   -203.1951200  0.494614E-08  0.442E-04    0.00      21.5  T
     SCC iter.                  ...        0 min,  0.499 sec
     gradient                   ...        0 min,  0.144 sec
 * total energy  :  -200.0427956 Eh     change       -0.1885912E-01 Eh
   gradient norm :     0.0422718 Eh/α   predicted    -0.1818419E-01 (  -3.58%)
   displ. norm   :     0.8744009 α      lambda       -0.1940155E-01
   maximum displ.:     0.6477509 α      in ANC's #10, #16, #15, ...

........................................................................
.............................. CYCLE   16 ..............................
........................................................................
   1   -203.2258334 -0.203226E+03  0.188E-01    0.02       0.0  T
   2   -202.6084618  0.617372E+00  0.106E+00    0.02       1.0  T
   3   -203.1565970 -0.548135E+00  0.444E-01    0.06       1.0  T
   4   -203.0907947  0.658023E-01  0.560E-01    0.15       1.0  T
   5   -203.2215035 -0.130709E+00  0.187E-01    0.01       1.0  T
   6   -203.2117551  0.974836E-02  0.234E-01    0.01       1.0  T
   7   -203.2342284 -0.224733E-01  0.690E-02    0.01       1.0  T
   8   -203.2344226 -0.194221E-03  0.609E-02    0.01       1.0  T
   9   -203.2360843 -0.166171E-02  0.121E-02    0.00       1.0  T
  10   -203.2359358  0.148578E-03  0.201E-02    0.01       1.0  T
  11   -203.2361297 -0.193986E-03  0.426E-03    0.00       2.2  T
  12   -203.2360112  0.118535E-03  0.160E-02    0.01       1.0  T
  13   -203.2361352 -0.123950E-03  0.162E-03    0.00       5.9  T
  14   -203.2361145  0.207097E-04  0.683E-03    0.00       1.4  T
  15   -203.2361278 -0.132993E-04  0.431E-03    0.00       2.2  T
  16   -203.2361280 -0.205499E-06  0.393E-03    0.00       2.4  T
  17   -203.2361346 -0.661879E-05  0.130E-03    0.00       7.3  T
  18   -203.2361349 -0.275219E-06  0.101E-03    0.00       9.4  T
  19   -203.2361343  0.586852E-06  0.152E-03    0.00       6.3  T
  20   -203.2361353 -0.101486E-05  0.513E-04    0.00      18.5  T
  21   -203.2361349  0.419432E-06  0.107E-03    0.00       8.9  T
  22   -203.2361352 -0.291626E-06  0.721E-04    0.00      13.2  T
  23   -203.2361353 -0.152311E-06  0.441E-04    0.00      21.5  T
     SCC iter.                  ...        0 min,  0.601 sec
     gradient                   ...        0 min,  0.144 sec
 * total energy  :  -200.0602841 Eh     change       -0.1748848E-01 Eh
   gradient norm :     0.0316588 Eh/α   predicted    -0.1711778E-01 (  -2.12%)
   displ. norm   :     0.9314802 α      lambda       -0.1892429E-01
   maximum displ.:     0.6719307 α      in ANC's #10, #16, #15, ...

........................................................................
.............................. CYCLE   17 ..............................
........................................................................
   1   -203.2710747 -0.203271E+03  0.148E-01    0.00       0.0  T
   2   -203.1175817  0.153493E+00  0.597E-01    0.08       1.0  T
   3   -203.2074400 -0.898583E-01  0.363E-01    0.01       1.0  T
   4   -203.0614307  0.146009E+00  0.645E-01    0.04       1.0  T
   5   -203.1806951 -0.119264E+00  0.419E-01    0.08       1.0  T
   6   -203.2379336 -0.572385E-01  0.264E-01    0.04       1.0  T
   7   -203.2701765 -0.322429E-01  0.627E-02    0.01       1.0  T
   8   -203.2692495  0.927015E-03  0.763E-02    0.01       1.0  T
   9   -203.2707268 -0.147731E-02  0.462E-02    0.00       1.0  T
  10   -203.2704974  0.229346E-03  0.528E-02    0.01       1.0  T
  11   -203.2717740 -0.127653E-02  0.896E-03    0.00       1.1  T
  12   -203.2717292  0.447302E-04  0.137E-02    0.00       1.0  T
  13   -203.2717905 -0.612093E-04  0.698E-03    0.00       1.4  T
  14   -203.2718105 -0.200754E-04  0.146E-03    0.00       6.5  T
  15   -203.2718104  0.133772E-06  0.168E-03    0.00       5.7  T
  16   -203.2718109 -0.481328E-06  0.123E-03    0.00       7.7  T
  17   -203.2718115 -0.667981E-06  0.249E-04    0.00      38.1  T
  18   -203.2718115  0.381099E-07  0.351E-04    0.00      27.1  T
     SCC iter.                  ...        0 min,  0.472 sec
     gradient                   ...        0 min,  0.144 sec
 * total energy  :  -200.0775001 Eh     change       -0.1721603E-01 Eh
   gradient norm :     0.0278225 Eh/α   predicted    -0.1767203E-01 (   2.65%)
   displ. norm   :     0.9407162 α      lambda       -0.1792094E-01
   maximum displ.:     0.6764244 α      in ANC's #10, #16, #15, ...

........................................................................
.............................. CYCLE   18 ..............................
........................................................................
   1   -203.2880350 -0.203288E+03  0.212E-01    0.01       0.0  T
   2   -203.0334789  0.254556E+00  0.814E-01    0.13       1.0  T
   3   -203.1974078 -0.163929E+00  0.451E-01    0.09       1.0  T
   4   -203.1377293  0.596785E-01  0.575E-01    0.20       1.0  T
   5   -203.1036777  0.340516E-01  0.639E-01    0.02       1.0  T
   6   -203.2475144 -0.143837E+00  0.319E-01    0.01       1.0  T
   7   -203.2594327 -0.119183E-01  0.288E-01    0.03       1.0  T
   8   -203.2965992 -0.371665E-01  0.442E-02    0.01       1.0  T
   9   -203.2940586  0.254065E-02  0.841E-02    0.01       1.0  T
  10   -203.2937460  0.312557E-03  0.823E-02    0.02       1.0  T
  11   -203.2968970 -0.315101E-02  0.352E-02    0.00       1.0  T
  12   -203.2973994 -0.502392E-03  0.131E-02    0.00       1.0  T
  13   -203.2974816 -0.821871E-04  0.461E-03    0.00       2.1  T
  14   -203.2974873 -0.572811E-05  0.234E-03    0.00       4.1  T
  15   -203.2974892 -0.183821E-05  0.108E-03    0.00       8.8  T
  16   -203.2974887  0.484921E-06  0.148E-03    0.00       6.4  T
  17   -203.2974895 -0.819888E-06  0.410E-04    0.00      23.2  T
  18   -203.2974896 -0.515285E-07  0.252E-04    0.00      37.7  T
     SCC iter.                  ...        0 min,  0.470 sec
     gradient                   ...        0 min,  0.145 sec
 * total energy  :  -200.0934322 Eh     change       -0.1593209E-01 Eh
   gradient norm :     0.0328171 Eh/α   predicted    -0.1689002E-01 (   6.01%)
   displ. norm   :     0.9282188 α      lambda       -0.1728102E-01
   maximum displ.:     0.6769859 α      in ANC's #10, #15, #16, ...

........................................................................
.............................. CYCLE   19 ..............................
........................................................................
   1   -203.3103249 -0.203310E+03  0.218E-01    0.01       0.0  T
   2   -202.8902983  0.420027E+00  0.981E-01    0.15       1.0  T
   3   -203.1905623 -0.300264E+00  0.535E-01    0.11       1.0  T
   4   -203.1084357  0.821266E-01  0.643E-01    0.21       1.0  T
   5   -203.3053284 -0.196893E+00  0.203E-01    0.01       1.0  T
   6   -203.2773257  0.280028E-01  0.327E-01    0.02       1.0  T
   7   -203.3177972 -0.404715E-01  0.948E-02    0.00       1.0  T
   8   -203.3201299 -0.233266E-02  0.491E-02    0.00       1.0  T
   9   -203.3192089  0.920940E-03  0.630E-02    0.01       1.0  T
  10   -203.3183644  0.844567E-03  0.711E-02    0.01       1.0  T
  11   -203.3207286 -0.236428E-02  0.298E-02    0.00       1.0  T
  12   -203.3209744 -0.245753E-03  0.167E-02    0.00       1.0  T
  13   -203.3209746 -0.191686E-06  0.165E-02    0.00       1.0  T
  14   -203.3210886 -0.113984E-03  0.378E-03    0.00       2.5  T
  15   -203.3210927 -0.410055E-05  0.211E-03    0.00       4.5  T
  16   -203.3210917  0.995098E-06  0.259E-03    0.00       3.7  T
  17   -203.3210931 -0.137892E-05  0.175E-03    0.00       5.4  T
  18   -203.3210940 -0.972802E-06  0.869E-04    0.00      10.9  T
  19   -203.3210943 -0.221472E-06  0.471E-04    0.00      20.1  T
     SCC iter.                  ...        0 min,  0.497 sec
     gradient                   ...        0 min,  0.145 sec
 * total energy  :  -200.1088041 Eh     change       -0.1537197E-01 Eh
   gradient norm :     0.0318673 Eh/α   predicted    -0.1608509E-01 (   4.64%)
   displ. norm   :     0.9302709 α      lambda       -0.1582743E-01
   maximum displ.:     0.6736203 α      in ANC's #10, #16, #15, ...

........................................................................
.............................. CYCLE   20 ..............................
........................................................................
   1   -203.3327496 -0.203333E+03  0.236E-01    0.02       0.0  T
   2   -202.8554550  0.477295E+00  0.105E+00    0.12       1.0  T
   3   -203.2059900 -0.350535E+00  0.571E-01    0.12       1.0  T
   4   -203.1341034  0.718866E-01  0.649E-01    0.20       1.0  T
   5   -203.3359571 -0.201854E+00  0.169E-01    0.01       1.0  T
   6   -203.2844803  0.514768E-01  0.380E-01    0.04       1.0  T
   7   -203.3435759 -0.590956E-01  0.103E-01    0.00       1.0  T
   8   -203.3448797 -0.130380E-02  0.790E-02    0.00       1.0  T
   9   -203.3336311  0.112487E-01  0.179E-01    0.02       1.0  T
  10   -203.3433130 -0.968193E-02  0.969E-02    0.02       1.0  T
  11   -203.3453446 -0.203164E-02  0.716E-02    0.01       1.0  T
  12   -203.3469710 -0.162633E-02  0.473E-02    0.00       1.0  T
  13   -203.3478692 -0.898239E-03  0.780E-03    0.00       1.2  T
  14   -203.3478667  0.246707E-05  0.836E-03    0.00       1.1  T
  15   -203.3478708 -0.403292E-05  0.805E-03    0.00       1.2  T
  16   -203.3478927 -0.219053E-04  0.343E-03    0.00       2.8  T
  17   -203.3478954 -0.269295E-05  0.221E-03    0.00       4.3  T
  18   -203.3478967 -0.134392E-05  0.133E-03    0.00       7.1  T
  19   -203.3478972 -0.498409E-06  0.681E-04    0.00      13.9  T
  20   -203.3478974 -0.163802E-06  0.407E-04    0.00      23.3  T
     SCC iter.                  ...        0 min,  0.523 sec
     gradient                   ...        0 min,  0.145 sec
 * total energy  :  -200.1234970 Eh     change       -0.1469282E-01 Eh
   gradient norm :     0.0273055 Eh/α   predicted    -0.1476230E-01 (   0.47%)
   displ. norm   :     0.9479540 α      lambda       -0.1557386E-01
   maximum displ.:     0.6722159 α      in ANC's #10, #15, #16, ...
 * RMSD in coord.:     1.1935231 α      energy gain  -0.7986032E+00 Eh

generating ANC from model Hessian ...
Using Lindh-Hessian (1995)
 Shifting diagonal of input Hessian by    1.0004025223740942E-002
 Lowest  eigenvalues of input Hessian
    0.010000    0.000000    0.000000    0.000000    0.000000    0.000000
    0.000000    0.010006    0.010008    0.010016    0.010020    0.010073
    0.010245    0.010494    0.010634    0.010964    0.011269    0.011480
 Highest eigenvalues
    2.121788    2.124468    2.127044    2.130768    2.469441    2.480793


........................................................................
.............................. CYCLE   21 ..............................
........................................................................
   1   -203.3511177 -0.203351E+03  0.286E-01    0.02       0.0  T
   2   -202.8366852  0.514432E+00  0.111E+00    0.10       1.0  T
   3   -203.1941730 -0.357488E+00  0.636E-01    0.25       1.0  T
   4   -203.2047497 -0.105767E-01  0.608E-01    0.21       1.0  T
   5   -203.3185830 -0.113833E+00  0.332E-01    0.03       1.0  T
   6   -203.1755297  0.143053E+00  0.607E-01    0.12       1.0  T
   7   -203.3513329 -0.175803E+00  0.212E-01    0.03       1.0  T
   8   -203.3614865 -0.101536E-01  0.157E-01    0.01       1.0  T
   9   -203.3675656 -0.607908E-02  0.117E-01    0.02       1.0  T
  10   -203.3658192  0.174636E-02  0.134E-01    0.02       1.0  T
  11   -203.3726744 -0.685525E-02  0.489E-02    0.01       1.0  T
  12   -203.3737979 -0.112343E-02  0.191E-02    0.00       1.0  T
  13   -203.3739096 -0.111772E-03  0.908E-03    0.00       1.0  T
  14   -203.3738610  0.486611E-04  0.150E-02    0.00       1.0  T
  15   -203.3739055 -0.445496E-04  0.929E-03    0.00       1.0  T
  16   -203.3739294 -0.238577E-04  0.723E-03    0.00       1.3  T
  17   -203.3739471 -0.177206E-04  0.314E-03    0.00       3.0  T
  18   -203.3739491 -0.202398E-05  0.218E-03    0.00       4.4  T
  19   -203.3739501 -0.993050E-06  0.139E-03    0.00       6.8  T
  20   -203.3739509 -0.750518E-06  0.700E-04    0.00      13.6  T
  21   -203.3739511 -0.204579E-06  0.585E-05    0.00     162.2  T
     SCC iter.                  ...        0 min,  0.548 sec
     gradient                   ...        0 min,  0.146 sec
 * total energy  :  -200.1372569 Eh     change       -0.1375989E-01 Eh
   gradient norm :     0.0246337 Eh/α   predicted     0.0000000E+00 (-100.00%)
   displ. norm   :     0.6619741 α      lambda       -0.1013464E-01
   maximum displ.:     0.4394420 α      in ANC's #12, #14, #11, ...

........................................................................
.............................. CYCLE   22 ..............................
........................................................................
   1   -203.3945241 -0.203395E+03  0.107E-01    0.00       0.0  T
   2   -203.2153964  0.179128E+00  0.642E-01    0.08       1.0  T
   3   -203.3725715 -0.157175E+00  0.216E-01    0.03       1.0  T
   4   -203.2430244  0.129547E+00  0.542E-01    0.03       1.0  T
   5   -203.3719636 -0.128939E+00  0.235E-01    0.00       1.0  T
   6   -203.3935484 -0.215848E-01  0.623E-02    0.00       1.0  T
   7   -203.3942463 -0.697905E-03  0.478E-02    0.00       1.0  T
   8   -203.3940318  0.214494E-03  0.481E-02    0.01       1.0  T
   9   -203.3939453  0.865175E-04  0.543E-02    0.01       1.0  T
  10   -203.3946807 -0.735392E-03  0.326E-02    0.01       1.0  T
  11   -203.3951898 -0.509083E-03  0.821E-03    0.00       1.2  T
  12   -203.3951721  0.176259E-04  0.101E-02    0.00       1.0  T
  13   -203.3952208 -0.486254E-04  0.733E-04    0.00      13.0  T
  14   -203.3952179  0.281582E-05  0.238E-03    0.00       4.0  T
  15   -203.3952206 -0.269166E-05  0.786E-04    0.00      12.1  T
  16   -203.3952207 -0.990281E-07  0.589E-04    0.00      16.1  T
  17   -203.3952209 -0.144907E-06  0.175E-04    0.00      54.3  T
     SCC iter.                  ...        0 min,  0.444 sec
     gradient                   ...        0 min,  0.146 sec
 * total energy  :  -200.1469656 Eh     change       -0.9708781E-02 Eh
   gradient norm :     0.0178508 Eh/α   predicted    -0.7287879E-02 ( -24.94%)
   displ. norm   :     0.8980549 α      lambda       -0.1273502E-01
   maximum displ.:     0.5658928 α      in ANC's #12, #14, #11, ...

........................................................................
.............................. CYCLE   23 ..............................
........................................................................
   1   -203.4076411 -0.203408E+03  0.209E-01    0.01       0.0  T
   2   -202.9566129  0.451028E+00  0.103E+00    0.17       1.0  T
   3   -203.2772616 -0.320649E+00  0.560E-01    0.12       1.0  T
   4   -203.2473500  0.299117E-01  0.588E-01    0.16       1.0  T
   5   -203.3880923 -0.140742E+00  0.257E-01    0.00       1.0  T
   6   -203.3163355  0.717568E-01  0.478E-01    0.06       1.0  T
   7   -203.4019371 -0.856017E-01  0.189E-01    0.03       1.0  T
   8   -203.4184279 -0.164907E-01  0.329E-02    0.00       1.0  T
   9   -203.4159303  0.249758E-02  0.828E-02    0.00       1.0  T
  10   -203.4173211 -0.139080E-02  0.529E-02    0.01       1.0  T
  11   -203.4187419 -0.142080E-02  0.105E-02    0.00       1.0  T
  12   -203.4187665 -0.246243E-04  0.656E-03    0.00       1.4  T
  13   -203.4187544  0.121127E-04  0.905E-03    0.00       1.0  T
  14   -203.4187666 -0.122281E-04  0.627E-03    0.00       1.5  T
  15   -203.4187817 -0.150950E-04  0.359E-03    0.00       2.6  T
  16   -203.4187868 -0.511047E-05  0.126E-03    0.00       7.5  T
  17   -203.4187867  0.756679E-07  0.137E-03    0.00       6.9  T
  18   -203.4187875 -0.711913E-06  0.413E-04    0.00      23.0  T
  19   -203.4187875 -0.421541E-07  0.255E-04    0.00      37.3  T
     SCC iter.                  ...        0 min,  0.497 sec
     gradient                   ...        0 min,  0.146 sec
 * total energy  :  -200.1591120 Eh     change       -0.1214638E-01 Eh
   gradient norm :     0.0143836 Eh/α   predicted    -0.1150293E-01 (  -5.30%)
   displ. norm   :     0.9322768 α      lambda       -0.1215498E-01
   maximum displ.:     0.5899013 α      in ANC's #12, #14, #13, ...

........................................................................
.............................. CYCLE   24 ..............................
........................................................................
   1   -203.4218722 -0.203422E+03  0.246E-01    0.02       0.0  T
   2   -202.9173489  0.504523E+00  0.110E+00    0.13       1.0  T
   3   -203.2752685 -0.357920E+00  0.623E-01    0.11       1.0  T
   4   -203.2394707  0.357978E-01  0.636E-01    0.19       1.0  T
   5   -203.3912255 -0.151755E+00  0.311E-01    0.02       1.0  T
   6   -203.2989449  0.922805E-01  0.544E-01    0.11       1.0  T
   7   -203.3992927 -0.100348E+00  0.277E-01    0.03       1.0  T
   8   -203.4392713 -0.399786E-01  0.281E-02    0.00       1.0  T
   9   -203.4307910  0.848027E-02  0.145E-01    0.00       1.0  T
  10   -203.4393619 -0.857091E-02  0.149E-02    0.00       1.0  T
  11   -203.4389146  0.447352E-03  0.342E-02    0.00       1.0  T
  12   -203.4394239 -0.509287E-03  0.529E-03    0.00       1.8  T
  13   -203.4394025  0.213809E-04  0.879E-03    0.00       1.1  T
  14   -203.4394187 -0.161845E-04  0.565E-03    0.00       1.7  T
  15   -203.4394044  0.142904E-04  0.768E-03    0.00       1.2  T
  16   -203.4394325 -0.280972E-04  0.152E-03    0.00       6.2  T
  17   -203.4394315  0.101826E-05  0.233E-03    0.00       4.1  T
  18   -203.4394327 -0.124075E-05  0.151E-03    0.00       6.3  T
  19   -203.4394336 -0.848295E-06  0.530E-04    0.00      17.9  T
  20   -203.4394336 -0.887580E-07  0.256E-04    0.00      37.0  T
     SCC iter.                  ...        0 min,  0.522 sec
     gradient                   ...        0 min,  0.146 sec
 * total energy  :  -200.1707243 Eh     change       -0.1161224E-01 Eh
   gradient norm :     0.0144708 Eh/α   predicted    -0.1135968E-01 (  -2.18%)
   displ. norm   :     0.9397809 α      lambda       -0.1135604E-01
   maximum displ.:     0.5964335 α      in ANC's #12, #14, #13, ...

........................................................................
.............................. CYCLE   25 ..............................
........................................................................
   1   -203.4439381 -0.203444E+03  0.239E-01    0.02       0.0  T
   2   -202.9399353  0.504003E+00  0.110E+00    0.13       1.0  T
   3   -203.3126555 -0.372720E+00  0.600E-01    0.06       1.0  T
   4   -203.2570178  0.556377E-01  0.638E-01    0.15       1.0  T
   5   -203.3940274 -0.137010E+00  0.364E-01    0.02       1.0  T
   6   -203.3191596  0.748679E-01  0.552E-01    0.10       1.0  T
   7   -203.4208049 -0.101645E+00  0.275E-01    0.04       1.0  T
   8   -203.4597252 -0.389203E-01  0.382E-02    0.00       1.0  T
   9   -203.4528369  0.688824E-02  0.135E-01    0.00       1.0  T
  10   -203.4595657 -0.672875E-02  0.375E-02    0.00       1.0  T
  11   -203.4597597 -0.194003E-03  0.321E-02    0.00       1.0  T
  12   -203.4601326 -0.372937E-03  0.107E-02    0.00       1.0  T
  13   -203.4601293  0.331759E-05  0.118E-02    0.00       1.0  T
  14   -203.4601844 -0.550866E-04  0.237E-03    0.00       4.0  T
  15   -203.4601357  0.487298E-04  0.102E-02    0.00       1.0  T
  16   -203.4601865 -0.508296E-04  0.831E-04    0.00      11.4  T
  17   -203.4601856  0.868082E-06  0.168E-03    0.00       5.6  T
  18   -203.4601859 -0.221363E-06  0.146E-03    0.00       6.5  T
  19   -203.4601866 -0.766898E-06  0.560E-04    0.00      16.9  T
  20   -203.4601867 -0.112053E-06  0.278E-04    0.00      34.2  T
     SCC iter.                  ...        0 min,  0.523 sec
     gradient                   ...        0 min,  0.146 sec
 * total energy  :  -200.1815594 Eh     change       -0.1083519E-01 Eh
   gradient norm :     0.0137774 Eh/α   predicted    -0.1069285E-01 (  -1.31%)
   displ. norm   :     0.9420650 α      lambda       -0.1051692E-01
   maximum displ.:     0.5982286 α      in ANC's #12, #14, #13, ...

........................................................................
.............................. CYCLE   26 ..............................
........................................................................
   1   -203.4679352 -0.203468E+03  0.218E-01    0.02       0.0  T
   2   -202.9788884  0.489047E+00  0.108E+00    0.16       1.0  T
   3   -203.3628599 -0.383972E+00  0.547E-01    0.00       1.0  T
   4   -203.4771149 -0.114255E+00  0.115E-01    0.01       1.0  T
   5   -203.2581460  0.218969E+00  0.670E-01    0.21       1.0  T
   6   -203.3878921 -0.129746E+00  0.470E-01    0.01       1.0  T
   7   -203.4660119 -0.781198E-01  0.185E-01    0.00       1.0  T
   8   -203.4791213 -0.131094E-01  0.655E-02    0.00       1.0  T
   9   -203.4795181 -0.396791E-03  0.550E-02    0.00       1.0  T
  10   -203.4717097  0.780840E-02  0.146E-01    0.01       1.0  T
  11   -203.4786041 -0.689446E-02  0.643E-02    0.01       1.0  T
  12   -203.4803678 -0.176367E-02  0.271E-02    0.01       1.0  T
  13   -203.4806241 -0.256258E-03  0.170E-02    0.00       1.0  T
  14   -203.4806649 -0.408444E-04  0.135E-02    0.00       1.0  T
  15   -203.4807255 -0.606087E-04  0.643E-03    0.00       1.5  T
  16   -203.4807319 -0.635798E-05  0.482E-03    0.00       2.0  T
  17   -203.4807407 -0.884471E-05  0.218E-03    0.00       4.4  T
  18   -203.4807419 -0.115829E-05  0.137E-03    0.00       6.9  T
  19   -203.4807426 -0.685253E-06  0.544E-04    0.00      17.5  T
  20   -203.4807427 -0.122215E-06  0.122E-04    0.00      77.7  T
     SCC iter.                  ...        0 min,  0.523 sec
     gradient                   ...        0 min,  0.147 sec
 * total energy  :  -200.1915799 Eh     change       -0.1002045E-01 Eh
   gradient norm :     0.0121410 Eh/α   predicted    -0.9925274E-02 (  -0.95%)
   displ. norm   :     0.9415528 α      lambda       -0.9640506E-02
   maximum displ.:     0.5979028 α      in ANC's #12, #14, #13, ...

........................................................................
.............................. CYCLE   27 ..............................
........................................................................
   1   -203.4937248 -0.203494E+03  0.185E-01    0.01       0.0  T
   2   -203.0499866  0.443738E+00  0.102E+00    0.19       1.0  T
   3   -203.4193975 -0.369411E+00  0.456E-01    0.02       1.0  T
   4   -203.3698717  0.495258E-01  0.511E-01    0.04       1.0  T
   5   -203.3992373 -0.293657E-01  0.454E-01    0.02       1.0  T
   6   -203.4306185 -0.313812E-01  0.408E-01    0.00       1.0  T
   7   -203.4897545 -0.591361E-01  0.166E-01    0.00       1.0  T
   8   -203.5006233 -0.108687E-01  0.412E-02    0.00       1.0  T
   9   -203.5012037 -0.580444E-03  0.155E-02    0.00       1.0  T
  10   -203.4996902  0.151355E-02  0.636E-02    0.00       1.0  T
  11   -203.5002363 -0.546151E-03  0.494E-02    0.00       1.0  T
  12   -203.5012174 -0.981084E-03  0.926E-03    0.00       1.0  T
  13   -203.5012325 -0.150836E-04  0.784E-03    0.00       1.2  T
  14   -203.5012449 -0.124125E-04  0.536E-03    0.00       1.8  T
  15   -203.5012409  0.395759E-05  0.614E-03    0.00       1.5  T
  16   -203.5012561 -0.151272E-04  0.130E-03    0.00       7.3  T
  17   -203.5012562 -0.188423E-06  0.110E-03    0.00       8.6  T
  18   -203.5012564 -0.154871E-06  0.879E-04    0.00      10.8  T
  19   -203.5012566 -0.196941E-06  0.555E-04    0.00      17.1  T
     SCC iter.                  ...        0 min,  0.497 sec
     gradient                   ...        0 min,  0.147 sec
 * total energy  :  -200.2007613 Eh     change       -0.9181414E-02 Eh
   gradient norm :     0.0109550 Eh/α   predicted    -0.9093513E-02 (  -0.96%)
   displ. norm   :     0.9415891 α      lambda       -0.8806424E-02
   maximum displ.:     0.5971091 α      in ANC's #12, #14, #13, ...

........................................................................
.............................. CYCLE   28 ..............................
........................................................................
   1   -203.5156867 -0.203516E+03  0.167E-01    0.01       0.0  T
   2   -203.1224455  0.393241E+00  0.957E-01    0.11       1.0  T
   3   -203.4773685 -0.354923E+00  0.337E-01    0.02       1.0  T
   4   -203.3557336  0.121635E+00  0.573E-01    0.06       1.0  T
   5   -203.4204670 -0.647333E-01  0.458E-01    0.00       1.0  T
   6   -203.4816052 -0.611383E-01  0.304E-01    0.01       1.0  T
   7   -203.5172173 -0.356121E-01  0.922E-02    0.01       1.0  T
   8   -203.5183702 -0.115285E-02  0.689E-02    0.01       1.0  T
   9   -203.5195168 -0.114656E-02  0.511E-02    0.00       1.0  T
  10   -203.5203481 -0.831378E-03  0.242E-02    0.00       1.0  T
  11   -203.5196312  0.716898E-03  0.479E-02    0.00       1.0  T
  12   -203.5202122 -0.580950E-03  0.301E-02    0.00       1.0  T
  13   -203.5205988 -0.386603E-03  0.341E-03    0.00       2.8  T
  14   -203.5206029 -0.412305E-05  0.156E-03    0.00       6.1  T
  15   -203.5205901  0.127939E-04  0.578E-03    0.00       1.6  T
  16   -203.5206012 -0.111137E-04  0.246E-03    0.00       3.9  T
  17   -203.5206026 -0.133114E-05  0.167E-03    0.00       5.7  T
  18   -203.5206034 -0.879688E-06  0.829E-04    0.00      11.4  T
  19   -203.5206035 -0.829398E-07  0.683E-04    0.00      13.9  T
     SCC iter.                  ...        0 min,  0.497 sec
     gradient                   ...        0 min,  0.148 sec
 * total energy  :  -200.2091316 Eh     change       -0.8370321E-02 Eh
   gradient norm :     0.0100994 Eh/α   predicted    -0.8307067E-02 (  -0.76%)
   displ. norm   :     0.9406483 α      lambda       -0.7996744E-02
   maximum displ.:     0.5957615 α      in ANC's #12, #14, #13, ...

........................................................................
.............................. CYCLE   29 ..............................
........................................................................
   1   -203.5357108 -0.203536E+03  0.155E-01    0.01       0.0  T
   2   -203.2060061  0.329705E+00  0.874E-01    0.06       1.0  T
   3   -203.5311089 -0.325103E+00  0.169E-01    0.00       1.0  T
   4   -203.4342122  0.968967E-01  0.477E-01    0.02       1.0  T
   5   -203.3116516  0.122561E+00  0.680E-01    0.07       1.0  T
   6   -203.5116755 -0.200024E+00  0.235E-01    0.04       1.0  T
   7   -203.5342026 -0.225271E-01  0.104E-01    0.01       1.0  T
   8   -203.5360778 -0.187529E-02  0.829E-02    0.00       1.0  T
   9   -203.5352919  0.785973E-03  0.854E-02    0.01       1.0  T
  10   -203.5374230 -0.213114E-02  0.553E-02    0.00       1.0  T
  11   -203.5384625 -0.103946E-02  0.288E-02    0.00       1.0  T
  12   -203.5388600 -0.397554E-03  0.486E-03    0.00       2.0  T
  13   -203.5388447  0.153466E-04  0.734E-03    0.00       1.3  T
  14   -203.5388568 -0.120764E-04  0.507E-03    0.00       1.9  T
  15   -203.5388670 -0.102381E-04  0.145E-03    0.00       6.6  T
  16   -203.5388668  0.241198E-06  0.175E-03    0.00       5.4  T
  17   -203.5388677 -0.953517E-06  0.927E-04    0.00      10.2  T
  18   -203.5388680 -0.280552E-06  0.402E-04    0.00      23.6  T
     SCC iter.                  ...        0 min,  0.472 sec
     gradient                   ...        0 min,  0.148 sec
 * total energy  :  -200.2166988 Eh     change       -0.7567135E-02 Eh
   gradient norm :     0.0091009 Eh/α   predicted    -0.7536227E-02 (  -0.41%)
   displ. norm   :     0.9367742 α      lambda       -0.7169927E-02
   maximum displ.:     0.5905606 α      in ANC's #12, #14, #13, ...

........................................................................
.............................. CYCLE   30 ..............................
........................................................................
[...]
eigval :     3148.73  3152.58  3152.90  3153.17  3153.25  3153.39
eigval :     3153.45  3153.50  3153.63  3161.25  3161.48  3162.07
eigval :     3162.66  3167.76  3168.56  3168.72  3169.14  3169.53
eigval :     3170.30  3170.49  3170.64
 reduced masses (amu)
   1: 12.99   2: 19.31   3: 19.70   4: 20.03   5: 20.08   6: 20.22   7: 17.02   8: 12.54
   9: 15.38  10: 11.90  11: 11.71  12: 11.28  13: 13.76  14: 13.27  15: 11.73  16: 11.76
  17: 11.05  18: 16.78  19: 13.63  20: 15.03  21: 15.07  22: 13.31  23: 24.10  24: 32.90
  25: 29.72  26: 21.65  27: 19.87  28: 11.16  29: 10.83  30: 10.83  31: 11.15  32: 11.34
  33: 11.40  34: 12.28  35: 12.22  36: 12.14  37: 12.13  38: 12.79  39: 11.88  40: 11.90
  41: 11.84  42: 13.94  43: 29.13  44: 23.84  45: 17.26  46: 12.72  47: 13.43  48: 13.04
  49: 32.48  50: 30.55  51: 48.17  52: 43.04  53: 50.97  54: 51.05  55: 50.70  56: 33.85
  57: 17.48  58: 15.18  59: 10.51  60: 10.51  61: 10.53  62: 13.19  63: 12.70  64: 12.96
  65: 11.88  66: 11.94  67: 12.03  68: 12.05  69: 11.49  70: 12.42  71: 12.10  72: 10.91
  73: 11.10  74: 11.60  75: 12.62  76: 12.35  77: 13.26  78: 13.34  79: 12.61  80: 13.16
  81: 10.05  82: 10.73  83:  9.95  84: 11.90  85: 11.96  86: 12.06  87: 10.41  88: 11.89
  89: 10.05  90:  9.97  91: 10.13  92: 10.30  93: 10.34  94: 11.97  95: 11.82  96: 11.82
  97: 11.74  98: 11.56  99: 11.71 100: 11.57 101: 11.70 102: 11.79 103: 11.51 104: 11.17
 105: 11.17 106: 11.20 107: 11.05 108: 10.97 109: 10.98 110: 10.92 111: 10.92 112: 11.06
 113: 11.21 114: 10.80 115: 10.80 116: 11.22 117: 11.22 118: 11.15 119: 11.13 120: 11.13
 121: 11.31 122: 11.32 123: 11.33 124: 11.35 125: 11.50 126: 11.34 127: 11.48 128: 11.09
 129: 11.10 130: 10.97 131: 10.97 132: 11.41 133: 11.16 134: 11.20 135: 11.10 136: 11.17
 137: 11.25 138: 11.22 139: 11.33 140: 11.39 141: 11.39 142: 11.07 143: 11.06 144: 11.75
 145: 11.64 146:  3.83 147:  3.79 148:  9.42 149: 11.53 150:  5.08 151:  4.78 152:  3.90
 153:  3.82 154:  4.10 155:  4.10 156:  4.28 157:  4.33 158:  4.30 159:  4.23 160:  3.85
 161:  3.86 162:  3.74 163:  3.84 164:  3.90 165:  3.90 166:  4.04 167:  4.13 168:  3.55
 169:  3.50 170:  3.52 171:  3.54 172:  3.49 173:  3.49 174:  3.53 175:  3.55 176:  3.41
 177:  3.42 178:  3.34 179:  3.37 180: 11.11 181: 11.17 182: 11.53 183: 11.34 184: 11.39
 185: 11.61 186: 11.70 187: 11.76 188: 11.78 189: 11.16 190: 10.97 191: 10.76 192:  7.14
 193:  7.29 194:  7.30 195: 10.55 196: 10.52 197:  9.45 198:  8.85 199:  8.96 200:  8.88
 201: 10.03 202: 10.17 203:  9.11 204:  2.33 205:  1.97 206:  2.01 207:  2.42 208:  1.72
 209:  1.79 210:  1.84 211:  1.84 212:  1.89 213:  2.89 214:  2.45 215:  2.90 216:  8.37
 217:  8.51 218:  5.49 219:  5.66 220:  5.46 221:  5.46 222:  6.43 223:  6.75 224:  6.34
 225:  7.08 226:  7.07 227:  8.00 228:  8.56 229:  8.71 230:  8.85 231:  8.86 232:  8.63
 233:  8.76 234:  8.76 235:  9.68 236:  9.69 237:  9.57 238: 11.29 239: 11.21 240: 11.06
 241: 10.02 242: 10.04 243: 11.02 244: 11.11 245: 11.49 246: 11.45 247: 11.98 248: 12.49
 249: 12.00 250: 11.78 251: 11.83 252: 11.97 253:  9.60 254:  9.61 255: 12.06 256:  8.86
 257: 10.39 258: 10.85 259:  9.56 260:  9.20 261:  9.20 262: 10.30 263: 10.59 264: 11.54
 265: 11.48 266: 11.58 267: 11.50 268: 11.49 269: 11.49 270: 11.64 271: 11.77 272: 11.82
 273: 11.74 274: 11.76 275: 11.75 276: 11.54 277: 11.46 278: 11.46 279: 11.71 280: 11.70
 281: 11.84 282: 11.83 283: 11.92 284: 11.75 285: 11.82 286: 11.68 287: 11.68 288: 11.53
 289: 11.62 290: 11.61 291: 11.62 292: 11.59 293: 11.59 294: 11.62 295: 11.62 296: 11.65
 297: 11.78 298: 11.78 299: 11.78 300: 12.01 301: 12.01 302:  1.81 303:  1.81 304:  1.81
 305:  1.81 306:  1.81 307:  1.81 308:  1.81 309:  1.81 310:  1.81 311:  1.81 312:  1.81
 313:  1.81 314:  1.82 315:  1.82 316:  1.82 317:  1.82 318:  1.82 319:  1.82 320:  1.82
 321:  1.82 322:  1.98 323:  1.98 324:  1.98 325:  1.98 326:  1.96 327:  1.96 328:  1.96
 329:  1.96 330:  1.96 331:  1.96 332:  1.96 333:  1.96
 IR intensities (km·mol⁻¹)
   1:598.47   2:  2.66   3:705.10   4: 21.65   5:231.95   6:******   7: 31.19   8:  0.66
   9: 19.75  10:170.58  11: 18.72  12: 71.97  13:  7.30  14: 22.57  15:105.43  16:  7.49
  17:116.38  18: 59.73  19: 44.86  20:  6.04  21:272.31  22:  0.32  23:  9.23  24: 24.89
  25: 94.23  26:******  27:  4.52  28: 15.35  29:441.92  30:  4.27  31:******  32:  2.50
  33:150.57  34:  1.25  35:  0.70  36: 37.35  37:  0.39  38: 25.76  39:246.15  40:  1.83
  41:362.81  42:  7.41  43:399.04  44:131.44  45: 54.45  46: 45.01  47:******  48:  0.95
  49: 16.82  50: 16.49  51:  0.11  52: 34.99  53: 36.75  54:  0.03  55:  3.40  56:666.57
  57: 15.90  58:  4.66  59:195.18  60:386.93  61:136.27  62: 79.03  63: 22.37  64: 17.86
  65:******  66:171.47  67: 88.98  68:  5.98  69:260.00  70:******  71:  0.22  72:  8.16
  73: 75.20  74:  2.08  75: 11.42  76:  2.22  77:  2.26  78: 66.68  79:  6.90  80:******
  81: 72.00  82:  9.48  83:105.01  84:  1.02  85: 38.91  86: 27.49  87:  2.75  88: 39.47
  89:  1.48  90: 44.86  91:  0.43  92:250.79  93:  2.44  94:  3.92  95:  1.65  96:  3.29
  97:  0.14  98: 16.46  99:106.90 100: 21.17 101: 61.41 102:  0.41 103:767.10 104: 48.91
 105: 26.16 106:175.48 107: 57.28 108: 23.56 109:****** 110: 10.34 111: 13.76 112:  0.74
 113: 23.25 114: 35.08 115:  1.37 116:747.77 117: 73.36 118:188.62 119:228.31 120:448.45
 121:  7.49 122: 14.13 123: 15.57 124:  3.87 125:****** 126: 18.23 127:386.62 128:******
 129:  0.01 130:  6.43 131:  1.47 132:  1.37 133:  1.68 134:  1.27 135: 20.32 136:  3.64
 137:****** 138:  7.36 139:  0.36 140:  6.96 141:  1.66 142:640.09 143: 49.41 144: 43.27
 145:  0.60 146:110.56 147: 11.35 148:  6.21 149: 92.17 150: 21.91 151: 14.20 152: 34.06
 153: 96.25 154: 10.44 155:  6.37 156: 14.04 157:117.50 158:564.76 159: 27.71 160:  6.94
 161: 50.01 162:329.94 163:  0.05 164:121.87 165:****** 166: 14.75 167: 54.42 168:307.10
 169:137.93 170: 85.06 171: 75.78 172:723.48 173:592.45 174:  3.98 175: 78.62 176:592.25
 177:  1.07 178: 13.74 179:  0.15 180: 29.15 181:  0.25 182:****** 183:  0.56 184: 14.88
 185:  5.41 186: 43.70 187: 28.58 188: 59.16 189:  0.12 190: 47.25 191: 57.97 192:  0.49
 193: 11.69 194:  2.22 195:  0.12 196: 11.42 197: 46.13 198:  2.49 199:133.22 200:  4.76
 201:  4.04 202: 10.35 203: 58.60 204:683.12 205:  2.13 206:  1.10 207:  1.37 208:  5.68
 209: 14.82 210:****** 211:  4.63 212: 52.17 213:  2.30 214:  0.28 215:****** 216:******
 217:  0.29 218:924.68 219: 25.77 220: 19.03 221:  0.76 222:154.71 223:  0.06 224:  3.51
 225:  0.09 226:  1.53 227:****** 228:  0.97 229:  2.60 230:  4.83 231:  1.26 232:123.57
 233:  2.20 234:  0.30 235:  0.16 236: 38.64 237:  5.03 238:107.83 239:  2.37 240:  2.82
 241:  4.44 242:  6.01 243:****** 244:  0.10 245: 41.16 246:  1.89 247:  0.23 248: 10.90
 249:248.85 250:****** 251: 58.16 252:****** 253: 40.81 254:  9.38 255: 19.88 256:  0.18
 257: 17.65 258:  4.77 259:353.41 260:  0.42 261:  5.53 262: 59.89 263:****** 264: 11.11
 265:465.25 266:  0.23 267: 11.94 268: 57.46 269:385.81 270:  3.15 271:795.97 272: 21.35
 273:****** 274: 16.13 275: 10.87 276:  0.81 277: 43.58 278:  0.54 279:  0.40 280:******
 281: 55.43 282:  4.90 283: 59.86 284:  3.75 285:  0.03 286: 31.65 287: 19.57 288: 17.20
 289:  0.01 290:****** 291: 29.49 292:  0.46 293: 21.26 294:153.13 295:  0.26 296:982.12
 297:  0.42 298: 10.16 299:  4.54 300: 15.97 301:729.13 302: 19.71 303: 14.86 304:******
 305: 79.29 306:****** 307:****** 308:****** 309:****** 310: 10.49 311: 62.45 312: 28.16
 313:  6.97 314:447.89 315:158.84 316:  3.67 317: 71.93 318:240.80 319:322.43 320:******
 321: 17.62 322:****** 323:****** 324:****** 325:****** 326:****** 327:****** 328:499.96
 329:****** 330: 18.69 331:432.55 332: 42.13 333: 42.06
 Raman intensities (amu)
   1:  0.00   2:  0.00   3:  0.00   4:  0.00   5:  0.00   6:  0.00   7:  0.00   8:  0.00
   9:  0.00  10:  0.00  11:  0.00  12:  0.00  13:  0.00  14:  0.00  15:  0.00  16:  0.00
  17:  0.00  18:  0.00  19:  0.00  20:  0.00  21:  0.00  22:  0.00  23:  0.00  24:  0.00
  25:  0.00  26:  0.00  27:  0.00  28:  0.00  29:  0.00  30:  0.00  31:  0.00  32:  0.00
  33:  0.00  34:  0.00  35:  0.00  36:  0.00  37:  0.00  38:  0.00  39:  0.00  40:  0.00
  41:  0.00  42:  0.00  43:  0.00  44:  0.00  45:  0.00  46:  0.00  47:  0.00  48:  0.00
  49:  0.00  50:  0.00  51:  0.00  52:  0.00  53:  0.00  54:  0.00  55:  0.00  56:  0.00
  57:  0.00  58:  0.00  59:  0.00  60:  0.00  61:  0.00  62:  0.00  63:  0.00  64:  0.00
  65:  0.00  66:  0.00  67:  0.00  68:  0.00  69:  0.00  70:  0.00  71:  0.00  72:  0.00
  73:  0.00  74:  0.00  75:  0.00  76:  0.00  77:  0.00  78:  0.00  79:  0.00  80:  0.00
  81:  0.00  82:  0.00  83:  0.00  84:  0.00  85:  0.00  86:  0.00  87:  0.00  88:  0.00
  89:  0.00  90:  0.00  91:  0.00  92:  0.00  93:  0.00  94:  0.00  95:  0.00  96:  0.00
  97:  0.00  98:  0.00  99:  0.00 100:  0.00 101:  0.00 102:  0.00 103:  0.00 104:  0.00
 105:  0.00 106:  0.00 107:  0.00 108:  0.00 109:  0.00 110:  0.00 111:  0.00 112:  0.00
 113:  0.00 114:  0.00 115:  0.00 116:  0.00 117:  0.00 118:  0.00 119:  0.00 120:  0.00
 121:  0.00 122:  0.00 123:  0.00 124:  0.00 125:  0.00 126:  0.00 127:  0.00 128:  0.00
 129:  0.00 130:  0.00 131:  0.00 132:  0.00 133:  0.00 134:  0.00 135:  0.00 136:  0.00
 137:  0.00 138:  0.00 139:  0.00 140:  0.00 141:  0.00 142:  0.00 143:  0.00 144:  0.00
 145:  0.00 146:  0.00 147:  0.00 148:  0.00 149:  0.00 150:  0.00 151:  0.00 152:  0.00
Refinement of some symmetry elements was terminated before convergence was reached.
Some symmetry elements may remain unidentified.
Molecule has no symmetry elements
It seems to be the C1 point group
 153:  0.00 154:  0.00 155:  0.00 156:  0.00 157:  0.00 158:  0.00 159:  0.00 160:  0.00
 161:  0.00 162:  0.00 163:  0.00 164:  0.00 165:  0.00 166:  0.00 167:  0.00 168:  0.00
 169:  0.00 170:  0.00 171:  0.00 172:  0.00 173:  0.00 174:  0.00 175:  0.00 176:  0.00
 177:  0.00 178:  0.00 179:  0.00 180:  0.00 181:  0.00 182:  0.00 183:  0.00 184:  0.00
 185:  0.00 186:  0.00 187:  0.00 188:  0.00 189:  0.00 190:  0.00 191:  0.00 192:  0.00
 193:  0.00 194:  0.00 195:  0.00 196:  0.00 197:  0.00 198:  0.00 199:  0.00 200:  0.00
 201:  0.00 202:  0.00 203:  0.00 204:  0.00 205:  0.00 206:  0.00 207:  0.00 208:  0.00
 209:  0.00 210:  0.00 211:  0.00 212:  0.00 213:  0.00 214:  0.00 215:  0.00 216:  0.00
 217:  0.00 218:  0.00 219:  0.00 220:  0.00 221:  0.00 222:  0.00 223:  0.00 224:  0.00
 225:  0.00 226:  0.00 227:  0.00 228:  0.00 229:  0.00 230:  0.00 231:  0.00 232:  0.00
 233:  0.00 234:  0.00 235:  0.00 236:  0.00 237:  0.00 238:  0.00 239:  0.00 240:  0.00
 241:  0.00 242:  0.00 243:  0.00 244:  0.00 245:  0.00 246:  0.00 247:  0.00 248:  0.00
 249:  0.00 250:  0.00 251:  0.00 252:  0.00 253:  0.00 254:  0.00 255:  0.00 256:  0.00
 257:  0.00 258:  0.00 259:  0.00 260:  0.00 261:  0.00 262:  0.00 263:  0.00 264:  0.00
 265:  0.00 266:  0.00 267:  0.00 268:  0.00 269:  0.00 270:  0.00 271:  0.00 272:  0.00
 273:  0.00 274:  0.00 275:  0.00 276:  0.00 277:  0.00 278:  0.00 279:  0.00 280:  0.00
 281:  0.00 282:  0.00 283:  0.00 284:  0.00 285:  0.00 286:  0.00 287:  0.00 288:  0.00
 289:  0.00 290:  0.00 291:  0.00 292:  0.00 293:  0.00 294:  0.00 295:  0.00 296:  0.00
 297:  0.00 298:  0.00 299:  0.00 300:  0.00 301:  0.00 302:  0.00 303:  0.00 304:  0.00
 305:  0.00 306:  0.00 307:  0.00 308:  0.00 309:  0.00 310:  0.00 311:  0.00 312:  0.00
 313:  0.00 314:  0.00 315:  0.00 316:  0.00 317:  0.00 318:  0.00 319:  0.00 320:  0.00
 321:  0.00 322:  0.00 323:  0.00 324:  0.00 325:  0.00 326:  0.00 327:  0.00 328:  0.00
 329:  0.00 330:  0.00 331:  0.00 332:  0.00 333:  0.00
 output can be read by thermo (or use thermo option).
 writing <g98.out> molden fake output.
 recommended (thermochemical) frequency scaling factor: 1.0
           -------------------------------------------------
          |             Thermodynamic Functions             |
           -------------------------------------------------

c1  symmetry found (for desy threshold:  0.10E+00) used in thermo

          ...................................................
          :                      SETUP                      :
          :.................................................:
          :  # frequencies                         327      :
          :  # imaginary freq.                       0      :
          :  linear?                             false      :
          :  only rotor calc.                    false      :
          :  symmetry                               c1      :
          :  rotational number                       1      :
          :  scaling factor                  1.0000000      :
          :  rotor cutoff                   50.0000000 cm⁻¹ :
          :  imag. cutoff                  -20.0000000 cm⁻¹ :
          :.................................................:

    mode    ω/cm⁻¹     T·S(HO)/kcal·mol⁻¹    T·S(FR)/kcal·mol⁻¹   T·S(vib)
   ------------------------------------------------------------------------
       1      1.31    -3.59264 (  0.00%)    -2.13538 (100.00%)    -2.13538
       2      4.26    -2.89460 (  0.01%)    -1.78639 ( 99.99%)    -1.78645
       3      5.77    -2.71458 (  0.02%)    -1.69638 ( 99.98%)    -1.69656
       4     10.54    -2.35729 (  0.20%)    -1.51772 ( 99.80%)    -1.51938
       5     11.22    -2.32034 (  0.25%)    -1.49925 ( 99.75%)    -1.50132
       6     13.85    -2.19537 (  0.59%)    -1.43674 ( 99.41%)    -1.44119
       7     25.46    -1.83515 (  6.30%)    -1.25650 ( 93.70%)    -1.29295
       8     30.34    -1.73144 ( 11.93%)    -1.20457 ( 88.07%)    -1.26745
       9     36.82    -1.61689 ( 22.73%)    -1.14717 ( 77.27%)    -1.25394
      10     40.96    -1.55401 ( 31.05%)    -1.11564 ( 68.95%)    -1.25175
      11     42.26    -1.53555 ( 33.79%)    -1.10638 ( 66.21%)    -1.25138
      12     43.00    -1.52524 ( 35.37%)    -1.10120 ( 64.63%)    -1.25117
      13     52.00    -1.41318 ( 53.91%)    -1.04493 ( 46.09%)    -1.24347
      14     52.29    -1.40993 ( 54.46%)    -1.04330 ( 45.54%)    -1.24297
      15     65.69    -1.27562 ( 74.87%)    -0.97569 ( 25.13%)    -1.20025
      16     68.35    -1.25231 ( 77.74%)    -0.96393 ( 22.26%)    -1.18812
      17     74.89    -1.19874 ( 83.42%)    -0.93688 ( 16.58%)    -1.15533
      18     83.99    -1.13157 ( 88.84%)    -0.90288 ( 11.16%)    -1.10606
      19     87.22    -1.10954 ( 90.25%)    -0.89171 (  9.75%)    -1.08831
      20     95.25    -1.05824 ( 92.94%)    -0.86564 (  7.06%)    -1.04464
      21     99.77    -1.03125 ( 94.07%)    -0.85189 (  5.93%)    -1.02060
      22    114.78    -0.95002 ( 96.52%)    -0.81037 (  3.48%)    -0.94517
      23    118.06    -0.93377 ( 96.88%)    -0.80203 (  3.12%)    -0.92966
      24    122.86    -0.91082 ( 97.33%)    -0.79023 (  2.67%)    -0.90760
      25    125.18    -0.90004 ( 97.52%)    -0.78467 (  2.48%)    -0.89717
      26    127.45    -0.88974 ( 97.69%)    -0.77936 (  2.31%)    -0.88718
      27    133.75    -0.86207 ( 98.08%)    -0.76506 (  1.92%)    -0.86021
      28    147.04    -0.80803 ( 98.68%)    -0.73699 (  1.32%)    -0.80709
      29    165.92    -0.73976 ( 99.18%)    -0.70121 (  0.82%)    -0.73944
      30    166.18    -0.73889 ( 99.19%)    -0.70075 (  0.81%)    -0.73858
      31    166.84    -0.73667 ( 99.20%)    -0.69958 (  0.80%)    -0.73637
      32    179.48    -0.69583 ( 99.40%)    -0.67794 (  0.60%)    -0.69573
      33    183.84    -0.68249 ( 99.46%)    -0.67083 (  0.54%)    -0.68242
      34    184.43    -0.68070 ( 99.46%)    -0.66988 (  0.54%)    -0.68064
      35    185.02    -0.67895 ( 99.47%)    -0.66894 (  0.53%)    -0.67889
      36    187.19    -0.67246 ( 99.49%)    -0.66547 (  0.51%)    -0.67242
      37    189.23    -0.66648 ( 99.51%)    -0.66228 (  0.49%)    -0.66646
      38    204.58    -0.62358 ( 99.64%)    -0.63916 (  0.36%)    -0.62364
      39    204.87    -0.62282 ( 99.65%)    -0.63875 (  0.35%)    -0.62287
      40    206.05    -0.61967 ( 99.65%)    -0.63704 (  0.35%)    -0.61973
      41    208.36    -0.61359 ( 99.67%)    -0.63374 (  0.33%)    -0.61365
      42    209.59    -0.61038 ( 99.68%)    -0.63199 (  0.32%)    -0.61045
      43    211.04    -0.60665 ( 99.69%)    -0.62996 (  0.31%)    -0.60672
      44    211.28    -0.60602 ( 99.69%)    -0.62962 (  0.31%)    -0.60609
      45    215.89    -0.59430 ( 99.71%)    -0.62322 (  0.29%)    -0.59438
      46    217.10    -0.59128 ( 99.72%)    -0.62157 (  0.28%)    -0.59136
      47    218.30    -0.58830 ( 99.73%)    -0.61994 (  0.27%)    -0.58839
      48    219.03    -0.58650 ( 99.73%)    -0.61895 (  0.27%)    -0.58659
      49    220.18    -0.58365 ( 99.73%)    -0.61739 (  0.27%)    -0.58374
      50    234.17    -0.55061 ( 99.79%)    -0.59915 (  0.21%)    -0.55071
      51    247.93    -0.52035 ( 99.83%)    -0.58223 (  0.17%)    -0.52045
      52    252.90    -0.50992 ( 99.85%)    -0.57635 (  0.15%)    -0.51002
      53    259.40    -0.49666 ( 99.86%)    -0.56883 (  0.14%)    -0.49676
      54    260.51    -0.49444 ( 99.86%)    -0.56757 (  0.14%)    -0.49454
      55    262.33    -0.49081 ( 99.87%)    -0.56550 (  0.13%)    -0.49091
      56    269.09    -0.47764 ( 99.88%)    -0.55796 (  0.12%)    -0.47774
   ------------------------------------------------------------------------

   temp. (K)  partition function   enthalpy   heat capacity  entropy
                                   cal/mol     cal/K/mol   cal/K/mol   J/K/mol
 298.15  VIB  0.487E+31            37590.443    245.158    236.875
         ROT  0.559E+09              888.752      2.981     43.007
         INT  0.272E+40            38479.195    248.139    279.882
         TR   0.382E+29             1481.254      4.968     47.002
         TOT                       39960.4494   253.1068   326.8837  1367.6813

       T/K    H(0)-H(T)+PV         H(T)/Eh          T*S/Eh         G(T)/Eh
   ------------------------------------------------------------------------
    298.15    0.636810E-01    0.836848E+00    0.155313E+00    0.681535E+00
   ------------------------------------------------------------------------

         :::::::::::::::::::::::::::::::::::::::::::::::::::::
         ::                  THERMODYNAMIC                  ::
         :::::::::::::::::::::::::::::::::::::::::::::::::::::
         :: total free energy        -199.571825617227 Eh   ::
         ::.................................................::
         :: total energy             -200.253360879579 Eh   ::
         :: zero point energy           0.773167218484 Eh   ::
         :: G(RRHO) w/o ZPVE           -0.091631956133 Eh   ::
         :: G(RRHO) contrib.            0.681535262352 Eh   ::
         :::::::::::::::::::::::::::::::::::::::::::::::::::::

optimized geometry written to: xtbopt.xyz


           -------------------------------------------------
          | TOTAL ENERGY             -200.253360879579 Eh   |
          | TOTAL ENTHALPY           -199.416512631505 Eh   |
          | TOTAL FREE ENERGY        -199.571825617227 Eh   |
          | GRADIENT NORM               0.000766470966 Eh/α |
          | HOMO-LUMO GAP               0.000571011011 eV   |
           -------------------------------------------------

------------------------------------------------------------------------
 * finished run on 2021/11/19 at 11:17:17.036     
------------------------------------------------------------------------
 total:
 * wall-time:     0 d,  0 h,  6 min,  9.514 sec
 *  cpu-time:     0 d,  0 h,  6 min,  9.518 sec
 * ratio c/w:     1.000 speedup
 SCF:
 * wall-time:     0 d,  0 h,  0 min,  1.155 sec
 *  cpu-time:     0 d,  0 h,  0 min,  1.155 sec
 * ratio c/w:     1.000 speedup
 ANC optimizer:
 * wall-time:     0 d,  0 h,  1 min,  3.585 sec
 *  cpu-time:     0 d,  0 h,  1 min,  3.584 sec
 * ratio c/w:     1.000 speedup
 analytical hessian:
 * wall-time:     0 d,  0 h,  4 min, 37.585 sec
 *  cpu-time:     0 d,  0 h,  4 min, 37.590 sec
 * ratio c/w:     1.000 speedup

