111
 energy: -199.324893996456 gnorm: 0.605677905058 xtb: 6.4.1 (bd6e46d)
Cu       15.83846300000000    0.03559800000000   -0.00993100000000
C        18.16745400000000   -3.11119500000000    1.31275700000000
C        19.08356100000000   -2.16698800000000    1.26247500000000
C        18.67238100000000   -1.11308400000000    0.34118300000000
C        19.29125200000000    0.01126200000000   -0.00522600000000
C        18.58721000000000    1.23121100000000   -0.36933200000000
C        18.91532000000000    2.19126500000000   -1.21680500000000
C        17.88054000000000    3.20755100000000   -1.23370300000000
C        16.94427200000000    2.83108900000000   -0.38681100000000
N        17.34626300000000    1.59807800000000    0.17700600000000
C        15.68319800000000    3.47608800000000   -0.00766000000000
C        14.58798100000000    2.84130600000000    0.34310000000000
C        13.51435500000000    3.15926200000000    1.31212900000000
C        12.67679200000000    2.16250800000000    1.23496200000000
C        13.11509000000000    1.15882500000000    0.25451000000000
N        14.22002800000000    1.59767800000000   -0.22978200000000
C        12.50425500000000   -0.09444600000000   -0.15903800000000
C        13.16841600000000   -1.19895300000000   -0.41346200000000
C        12.79456700000000   -2.26189400000000   -1.37099000000000
C        13.74331400000000   -3.15565000000000   -1.28197000000000
C        14.72903800000000   -2.71820000000000   -0.29909300000000
N        14.37599200000000   -1.57239500000000    0.19770500000000
C        15.95992600000000   -3.37427100000000    0.14662900000000
C        17.08296700000000   -2.72840900000000    0.41375000000000
N        17.41156700000000   -1.48096800000000   -0.18465400000000
H        18.22771500000000   -4.02097600000000    1.93030400000000
H        19.99988800000000   -2.20693700000000    1.84052400000000
H        19.84268500000000    2.20806100000000   -1.81794900000000
H        17.89743900000000    4.11223900000000   -1.84632500000000
H        15.63547500000000    4.57089100000000   -0.01143700000000
H        13.46153400000000    4.03798700000000    1.93712100000000
H        11.76516200000000    2.12683800000000    1.85228600000000
H        11.40600500000000   -0.09153500000000   -0.25830800000000
H        11.92571100000000   -2.31435900000000   -2.01994000000000
H        13.74046800000000   -4.07195800000000   -1.88073000000000
H        15.92444400000000   -4.47007200000000    0.25855300000000
Cu       40.00276500000000   -0.01177800000000   -0.01436400000000
C        37.67377400000000    2.83501400000000    1.86914000000000
C        36.75766600000000    1.91652400000000    1.64456700000000
C        37.16884600000001    1.05182800000000    0.54375300000000
C        36.54997500000001    0.01126200000000   -0.00522600000000
C        37.25401800000000   -1.11996200000000   -0.58932900000000
C        36.92590700000001   -1.90613400000000   -1.60019600000000
C        37.96068700000000   -2.90164300000000   -1.80533600000000
C        38.89695500000000   -2.68882700000000   -0.90330600000000
N        38.49496500000000   -1.58181500000000   -0.12053500000000
C        40.15802900000000   -3.39296800000000   -0.65039300000000
C        41.25324700000001   -2.83427500000000   -0.18796000000000
C        42.32687200000000   -3.32648100000000    0.70526200000000
C        43.16443500000000   -2.33271400000000    0.81434700000000
C        42.72613700000000   -1.16456500000000    0.03711200000000
N        41.62119900000000   -1.50595700000000   -0.52018700000000
C        43.33697200000000    0.14367000000000   -0.13675700000000
C        42.67281200000000    1.27620400000000   -0.18186400000000
C        43.04666000000001    2.49832900000000   -0.92557900000000
C        42.09791300000000    3.36005700000000   -0.67230000000000
C        41.11218900000000    2.74786200000000    0.21236300000000
N        41.46523500000000    1.52978300000000    0.48797300000000
C        39.88130100000001    3.30985600000000    0.77205800000000
C        38.75826000000000    2.62565200000000    0.91472500000000
N        38.42966000000000    1.51087700000000    0.09529100000000
H        37.61351200000000    3.61443800000000    2.64474400000000
H        35.84133900000000    1.84854400000000    2.21999200000000
H        35.99854200000000   -1.81111700000000   -2.19402100000000
H        37.94378800000000   -3.67697800000000   -2.57515600000000
H        40.20575200000000   -4.46806600000000   -0.85720600000000
H        42.37969400000000   -4.30589700000000    1.15638900000000
H        44.07606500000000   -2.41218600000000    1.42757300000000
H        44.43522300000000    0.15922600000000   -0.23484500000000
H        43.91551600000000    2.67027300000000   -1.55353100000000
H        42.10075900000000    4.37153800000000   -1.09067800000000
H        39.91678400000000    4.36587300000000    1.08532700000000
C        21.90570000000000    0.01126200000000   -0.00522600000000
C        23.12190500000001    0.01126200000000   -0.00522600000000
C        32.71932200000000    0.01126200000000   -0.00522600000000
C        33.93552700000000    0.01126200000000   -0.00522600000000
Cu       27.95211000000000    0.02406400000000    0.00825900000000
C        25.67229900000000   -3.23738300000000   -0.90140700000000
C        24.71609000000000   -2.33803300000000   -1.00343300000000
C        25.10846400000000   -1.17572800000000   -0.20091700000000
C        24.47334700000000   -0.02445600000000    0.01134900000000
C        25.15880400000000    1.25014400000000    0.23757800000000
C        24.82351400000000    2.32874400000000    0.94181900000000
C        25.84805500000000    3.34806100000000    0.85123700000000
C        26.79865300000000    2.85113600000000    0.07787200000000
N        26.42165800000000    1.53453100000000   -0.33827100000000
C        28.04579200000000    3.46283800000000   -0.33899300000000
C        29.14734400000000    2.79558000000000   -0.67076500000000
C        30.14089000000000    3.04756500000000   -1.70493500000000
C        31.03477300000000    2.08670600000000   -1.60345100000000
C        30.65507500000000    1.17482200000000   -0.49947400000000
N        29.56016000000000    1.62414100000000    0.00789300000000
C        31.31228200000000   -0.02445600000000    0.01134900000000
C        30.68887100000000   -1.09363800000000    0.47286600000000
C        31.06758300000000   -2.02575300000000    1.54834100000000
C        30.12691500000000   -2.93989900000000    1.63420700000000
C        29.11861300000000   -2.64412000000000    0.63678000000000
N        29.45638800000000   -1.59074300000000   -0.01251500000000
C        27.86622000000000   -3.35112700000000    0.30558700000000
C        26.75234400000000   -2.75443100000000   -0.04175400000000
N        26.37023100000000   -1.47167400000000    0.37592800000000
H        25.67264300000000   -4.22845700000000   -1.39264100000000
H        23.80755500000000   -2.45972700000000   -1.58458100000000
H        23.89866200000000    2.44709500000000    1.51874400000000
H        25.87535000000000    4.33722500000000    1.30788700000000
H        28.13173200000000    4.56021500000000   -0.40101600000000
H        30.17356300000001    3.85378100000000   -2.43175900000000
H        31.92783500000001    1.97373800000000   -2.23722500000000
H        31.98233400000001   -1.95134700000000    2.15851100000000
H        30.14596100000000   -3.75350700000000    2.34247500000000
H        27.90470500000000   -4.45108700000000    0.36462300000000
111
 energy: -199.513100102611 gnorm: 0.318444948985 xtb: 6.4.1 (bd6e46d)
Cu       15.85360755995706    0.03369372953921   -0.00697794067180
C        18.17104392950128   -3.12236383108292    1.29992860668834
C        19.10288703109321   -2.16743925041869    1.25737958951192
C        18.66928589150710   -1.11317875788213    0.35152094866586
C        19.27523548801450    0.03671487077787   -0.00548449520160
C        18.57322919326758    1.23091040093003   -0.35975305885993
C        18.93086958072513    2.22401979451143   -1.23635076772163
C        17.91569841675056    3.20938960878115   -1.24904704470198
C        16.93899176937893    2.79982229449418   -0.38207010293145
N        17.31635844906951    1.57031687820110    0.17641706317347
C        15.70653491428822    3.46945420102207   -0.00659726015422
C        14.57833351559192    2.82156947601818    0.34349820328679
C        13.51163717507571    3.16913561441463    1.28896154138013
C        12.64655496453469    2.15441917912362    1.23955084184776
C        13.11142899780333    1.15957645430428    0.27548609498424
N        14.26287007047676    1.56631743421955   -0.20057470004318
C        12.49135577815946   -0.06983248246100   -0.15209300411926
C        13.17133098297361   -1.20119775796253   -0.41920893972990
C        12.78297174665905   -2.26534327875673   -1.35120864260852
C        13.75098204434746   -3.18095387806374   -1.27865965358219
C        14.74018538919009   -2.72590352733427   -0.31138862213601
N        14.39519485736095   -1.54165552163856    0.15898826879100
C        15.94115654921370   -3.37985248498040    0.13805265779658
C        17.09044786552522   -2.71123259307587    0.41642065522895
N        17.40455768586081   -1.47084334975268   -0.14385221256513
H        18.21614047654771   -4.01530064047595    1.91893463873415
H        20.00849517829979   -2.19400048432837    1.83683116797677
H        19.84166050849501    2.22146397849111   -1.82210754798913
H        17.90847139770807    4.10837887073787   -1.84856145018042
H        15.66035876541498    4.56233543077622   -0.00028596557978
H        13.47144092411476    4.03663856557474    1.92674870248146
H        11.75652679674379    2.11406359688794    1.85183451696389
H        11.40733401978109   -0.07788301595101   -0.26797171921436
H        11.92696319395847   -2.30172987836040   -2.00837614094280
H        13.75589575815260   -4.07959789404103   -1.87619636469269
H        15.91652106046240   -4.46410060319354    0.26099573305213
Cu       39.98765164088633   -0.01044103468113   -0.01113945615014
C        37.67023766576991    2.84835883049804    1.85863461724549
C        36.73835007155999    1.91795438206598    1.63965256485078
C        37.17183568749137    1.05004289332109    0.55403155698430
C        36.56561244171812   -0.01401673167761   -0.00939421623451
C        37.26800547552953   -1.12140360412014   -0.57977889024421
C        36.91038092544050   -1.93466629795529   -1.62536829447724
C        37.92555145740594   -2.90058365352730   -1.82075526964098
C        38.90224185696874   -2.65897833654759   -0.89286610940096
N        38.52483420391861   -1.55447244916224   -0.11599122554046
C        40.13470335547296   -3.38666087303799   -0.64812373272822
C        41.26289391221493   -2.81495276963702   -0.18391738228152
C        42.32959823667989   -3.33188599272415    0.68065344715258
C        43.19467712816213   -2.32562361734810    0.82033871223025
C        42.72980133533799   -1.16919208676840    0.05755763085784
N        41.57837450658695   -1.48057803592757   -0.48570640259263
C        43.34986845089903    0.11818041290374   -0.13450015802604
C        42.66987501976757    1.27948131190258   -0.18711398398215
C        43.05823336000427    2.49804493232847   -0.90552705185561
C        42.09024870513883    3.38432525306721   -0.66434162460784
C        41.10103157676058    2.75772295965036    0.20170435140451
N        41.44605536902321    1.50675576762629    0.44422292194998
C        39.90005761792696    3.31692981033211    0.76462106156640
C        38.75074362651731    2.60826559288717    0.91415940931471
N        38.43665473751804    1.49318364946931    0.13366234522971
H        37.62510138809920    3.61097484773069    2.63251383620293
H        35.83274058410461    1.83658766883025    2.21395630658572
H        35.99959705618344   -1.82349328452495   -2.20062641750379
H        37.93276671096304   -3.67276069413800   -2.57666946990550
H        40.18088118804518   -4.46174355954574   -0.84467731150882
H        42.36979304297309   -4.30265351645325    1.14643813081669
H        44.08470357449769   -2.39955225820675    1.42948826565600
H        44.43389180171079    0.14760091263490   -0.24686358028898
H        43.91425594720741    2.65571628906542   -1.54452381360800
H        42.08532423591613    4.37821004938787   -1.08481230226089
H        39.92468525294899    4.35955838203386    1.08656365120906
C        21.86325490176761    0.00967722580516   -0.00734338141671
C        23.09050269002909    0.02362631341238   -0.00756761724687
C        32.74876796330909    0.02180693789760    0.00184588001923
C        33.97191841286285    0.01120043193653   -0.00746143277529
Cu       27.94051926852139    0.02678958061498    0.00342871601056
C        25.67155921540969   -3.25955081666359   -0.88977640605683
C        24.70958211687383   -2.33769064425820   -0.99224628353852
C        25.13502362552228   -1.18726030423669   -0.20604493278265
C        24.47997727369623    0.00061056058291    0.00735735530589
C        25.19075289375739    1.25452556989829    0.23522841979157
C        24.81208957352551    2.35899880194475    0.95387697849188
C        25.81936641075655    3.34900651192040    0.85899502040459
C        26.81032972809875    2.82426797474844    0.07617954783829
N        26.45690720242708    1.51230027877584   -0.31632714236941
C        28.02846468750562    3.45734539567280   -0.34199624293436
C        29.15641505685306    2.77895027858596   -0.67076438660110
C        30.15272337474906    3.05651028881536   -1.68597143090181
C        31.06016547302774    2.07268114548005   -1.60261841412722
C        30.65825350289036    1.16993545337905   -0.52054852424304
N        29.51768641338676    1.59040040809539   -0.02114266728703
C        31.33300051503173   -0.00516388553347    0.00131294967437
C        30.67931224685303   -1.10273218565926    0.48010197442416
C        31.08289219075728   -2.02690482730160    1.53342225927956
C        30.12279602131476   -2.95840841861397    1.63204329039037
C        29.10714479250584   -2.64641763827964    0.64834967545835
N        29.43249733822881   -1.54092837373854    0.01095052583311
C        27.88782631276741   -3.35682846299639    0.31598202251434
C        26.74012611856880   -2.73968996621785   -0.05002415532010
N        26.38931076986661   -1.45046974134984    0.33089408214337
H        25.67985842385178   -4.22590295588450   -1.38706622194320
H        23.80817521988170   -2.44511510949358   -1.57726983209686
H        23.89644538029803    2.45402710962774    1.52045942708369
H        25.85876595936192    4.32967679876182    1.31104640787267
H        28.10548426213361    4.54965401953943   -0.41088696117866
H        30.16402762049864    3.85186969088729   -2.41877440918952
H        31.93159374625851    1.96367714089715   -2.23344252948887
H        31.97663688020386   -1.94435903409601    2.14609668029712
H        30.13511671744142   -3.76239239617693    2.34240490581564
H        27.91436262585283   -4.44700745557645    0.35997013949328
111
 energy: -199.621025237793 gnorm: 0.121362472653 xtb: 6.4.1 (bd6e46d)
Cu       15.86478774297215    0.03246673434307   -0.00428856051329
C        18.17247784894227   -3.12763456134664    1.28471291400410
C        19.12015046240800   -2.16647859709465    1.24976073580582
C        18.66246486123877   -1.11105651817972    0.36635375208759
C        19.25557861988804    0.05847940026344   -0.01987789199646
C        18.56102576317708    1.22404284379644   -0.35699140548038
C        18.94208790275291    2.25636804232426   -1.24593853072129
C        17.95212253550091    3.20656668683992   -1.25012975414097
C        16.93446536717937    2.76438306162017   -0.37435827572696
N        17.29064097677719    1.54068613899570    0.15444106459059
C        15.73409526961945    3.45216272515655   -0.00461466028306
C        14.58156141614815    2.78932598750283    0.35438739021220
C        13.51668844475433    3.17028509867244    1.25941116261782
C        12.62166008515801    2.15078840854500    1.23207013590974
C        13.11006310519021    1.15700680875745    0.29993194274188
N        14.31141671934858    1.52981790005559   -0.15711859449014
C        12.48667080455465   -0.04689079390878   -0.14423216286975
C        13.18373059956970   -1.19489768183638   -0.43641089204446
C        12.77893258621738   -2.26512075076910   -1.32773272889610
C        13.75385442272658   -3.20180652035516   -1.26493808741028
C        14.75408645932917   -2.72744310850640   -0.32643789892423
N        14.41909407967686   -1.49837328949840    0.10583637735104
C        15.92483088791700   -3.37599351235129    0.12787978195934
C        17.09321488416502   -2.68502005982882    0.42434229848989
N        17.39296806258949   -1.45724685940326   -0.09373282514534
H        18.20380838435693   -4.01055758080029    1.90035562583294
H        20.02140300867649   -2.17970322594096    1.82669981582748
H        19.84182131515808    2.23316374471093   -1.82163956093504
H        17.91391636750032    4.10235523549486   -1.84239609636134
H        15.68700562037469    4.54243468479492    0.00325213649263
H        13.48222406410551    4.03193681202417    1.90585048668665
H        11.74713384475297    2.10136815903282    1.84326085259675
H        11.41238467742974   -0.06848286397237   -0.26922254864281
H        11.92940266358906   -2.28915446420317   -1.98874964312593
H        13.77116050182909   -4.08873855035778   -1.86353888584404
H        15.91507158461966   -4.45238118612906    0.25641396255475
Cu       39.97648380779410   -0.00975046299956   -0.00822767329618
C        37.66887911503746    2.85623637468296    1.84467430791730
C        36.72114811086346    1.91828430280424    1.63179565710954
C        37.17878991084294    1.04532984143613    0.56766755976495
C        36.58510559177437   -0.03185182991028   -0.02954718610098
C        37.28025344947660   -1.11498028445843   -0.57616135858256
C        36.89920775893842   -1.96474173339890   -1.64085490314834
C        37.88919225853285   -2.89765402181791   -1.82129161027712
C        38.90675789559089   -2.62563498294605   -0.87864992988239
N        38.55054131302774   -1.52110717175575   -0.13221913895729
C        40.10711619786502   -3.37007798962381   -0.64291111950605
C        41.25965233328397   -2.78529059309376   -0.16720694242886
C        42.32453235323768   -3.32750680600424    0.65141751300636
C        43.21959743958536   -2.32065508914057    0.81362299281984
C        42.73118679835686   -1.17118030733780    0.08206024237302
N        41.52975554373922   -1.45275843106150   -0.43613748607798
C        43.35456807091614    0.09415715450508   -0.13101848684557
C        42.65745356355488    1.27647984528392   -0.20522125087421
C        43.06223018309151    2.49343913019169   -0.88255440660732
C        42.08737827417363    3.40228730068632   -0.64696917401500
C        41.08713057231964    2.76207323710662    0.18720563447775
N        41.42213854178993    1.47404156560270    0.38388418247152
C        39.91643332266380    3.31505704810868    0.75389348676649
C        38.74806218371724    2.58099686637613    0.91716308630787
N        38.44849755209042    1.47057138367490    0.18036159617052
H        37.63741379432259    3.60971587560161    2.61333223536858
H        35.81984927162875    1.82443110499045    2.20116489165514
H        35.99953105042978   -1.83515005696193   -2.20240048593518
H        37.92735478060036   -3.66802331127433   -2.56946877136250
H        40.15424336370860   -4.44286321485883   -0.83751888092987
H        42.35900397843600   -4.29413464713117    1.12678967257571
H        44.09410499875635   -2.38546680893537    1.42340723021283
H        44.42885295925857    0.13859742289887   -0.24979404069463
H        43.91179546054222    2.63969949187016   -1.52759938896983
H        42.07005166688618    4.38484368004028   -1.07069518505848
H        39.92610243679218    4.34894731132452    1.07977113179681
C        21.83012440835069    0.01948673719787    0.00288778806651
C        23.05987827375417    0.03616094598834   -0.00513201777403
C        32.78247925305897    0.01895873889573    0.00377112957881
C        34.01006708850655    0.00108133227611    0.00642446861378
Cu       27.93526505632254    0.02962360108414   -0.00103173007743
C        25.67570184286159   -3.27396568532684   -0.87542440286696
C        24.70705154306557   -2.33139216792302   -0.97687950433354
C        25.16123443445649   -1.18769074926381   -0.21791892629032
C        24.48103737938060    0.02756843306100    0.00581717945513
C        25.22293708825520    1.25039036659500    0.23430263309227
C        24.80340405050856    2.38749541149238    0.95561199529466
C        25.78935105627922    3.34361434615216    0.85562187018715
C        26.82357340128504    2.79159025259650    0.07536461055251
N        26.49021066279191    1.48546595751294   -0.27123316075006
C        28.00773453155685    3.44132823375308   -0.34445995865460
C        29.15560066444757    2.74602008030053   -0.67980594421436
C        30.15958557167479    3.05626139109530   -1.66241295063947
C        31.08360686464443    2.06008462567434   -1.58908679854659
C        30.66450533333121    1.15789398097425   -0.54307674874790
N        29.47108262959539    1.54679103434932   -0.06230020623146
C        31.35767482170886    0.01217465000663   -0.00870747163984
C        30.66441174633658   -1.09916667860907    0.49567157167287
C        31.09016742340431   -2.02242241916012    1.51385816790914
C        30.12072143738152   -2.97303775886707    1.61641806215812
C        29.09296784790097   -2.64040796860358    0.66105117047019
N        29.40874471575337   -1.47585035930612    0.04789806725091
C        27.90911209560434   -3.34882236894183    0.32590318213239
C        26.73794186605633   -2.71791099221441   -0.06803470398882
N        26.40938507275457   -1.42611691013438    0.27426060376538
H        25.68727207561786   -4.22421924397387   -1.37295963445974
H        23.80833301824171   -2.42727875921075   -1.56095665736702
H        23.89322371515249    2.45758357574242    1.51549711694837
H        25.84346442523839    4.31840831779270    1.30725512851985
H        28.07675549680976    4.52871751441824   -0.41312848573182
H        30.15382816593733    3.84889984028204   -2.39468868519000
H        31.93827549284754    1.95403977738320   -2.22240767717243
H        31.97075747307571   -1.93940935372250    2.12619601524519
H        30.12286482097679   -3.77107989857994    2.33178067725775
H        27.91871931125590   -4.43312537371057    0.36263779305150
111
 energy: -199.677708159774 gnorm: 0.074779568521 xtb: 6.4.1 (bd6e46d)
Cu       15.87350070023064    0.03056798624406   -0.00115218192988
C        18.17910895115180   -3.12715972651849    1.27036862432324
C        19.13578013228939   -2.16582060622558    1.24206119110806
C        18.66103067448517   -1.09901071831370    0.39189038126539
C        19.25225346461126    0.07189996624523   -0.01688174193136
C        18.56065713956749    1.21416977308519   -0.36573278689661
C        18.95984186389257    2.27563322651829   -1.24688998293228
C        17.97722662507703    3.20878405140935   -1.24450781301200
C        16.93676062594387    2.73593598844676   -0.37380225193220
N        17.27899512261193    1.50944546704086    0.11775305111386
C        15.76023748255711    3.42457625704436    0.00290933020237
C        14.60266035819088    2.75227200307197    0.37787355789511
C        13.52185387684969    3.16562528693962    1.23553548688034
C        12.60704843768619    2.15305804064978    1.21607010250641
C        13.11687061029091    1.14270266665582    0.32790089989546
N        14.35497024711988    1.48711793357057   -0.09832254078659
C        12.49052273618810   -0.03468394999467   -0.13899068103385
C        13.20128033304717   -1.18009474373700   -0.46245402211014
C        12.77836040633856   -2.26703030577707   -1.30947690243723
C        13.75101459817662   -3.21473950310005   -1.24625007893697
C        14.77142123214972   -2.71518601882834   -0.35095388741517
N        14.44995858456490   -1.45457594714573    0.04166057828331
C        15.92174136699646   -3.36201730246284    0.12005148690269
C        17.09317192425614   -2.66137431187670    0.43846516010889
N        17.38273252943093   -1.42848166994401   -0.04083527102513
H        18.19581280233724   -4.01457221725658    1.87475964382052
H        20.04372508716407   -2.16911674793908    1.80860854856319
H        19.86099903542017    2.24727895687455   -1.81941224698457
H        17.91911518526863    4.10727007550661   -1.83005633269894
H        15.72025182964565    4.51205022995565    0.00340272755712
H        13.49044250012313    4.03308352158419    1.87185586908067
H        11.72807755476436    2.09481392980365    1.82275967367391
H        11.41714796268201   -0.05907339964654   -0.26329255159828
H        11.92311504718376   -2.28292076972252   -1.96004347351292
H        13.78237243153891   -4.10739203819602   -1.83725067935983
H        15.91774997923439   -4.43723672116311    0.24452066646616
Cu       39.96777205855184   -0.00838434357694   -0.00476774297426
C        37.66223519891324    2.85845562267652    1.83054156030220
C        36.70541384629151    1.91923121900777    1.62427646255139
C        37.17991215175339    1.02851860789685    0.59106404093551
C        36.58779214177764   -0.04628760038506   -0.02746443937760
C        37.28022415174498   -1.10380067725645   -0.58250175189060
C        36.88131812574984   -1.98340902935086   -1.64527309953289
C        37.86400243409737   -2.90082101997371   -1.81615479049945
C        38.90440009023708   -2.59763554767680   -0.87289197441207
N        38.56213130811359   -1.48332091203896   -0.16262988839262
C        40.08090550555438   -3.34425667975928   -0.63038145757515
C        41.23851711412834   -2.75318254410922   -0.13720587530871
C        42.31935141829425   -3.31848677221668    0.62886819314226
C        43.23423485375830   -2.31994507895686    0.79746593294778
C        42.72438277863223   -1.16231025898663    0.11222374773166
N        41.48619580426062   -1.42169757968975   -0.37039240074548
C        43.35071199611006    0.08118100078983   -0.12810377903491
C        42.63989272820945    1.26676313874778   -0.23357150687062
C        43.06281129742079    2.49193835448992   -0.86428302262355
C        42.09024097376903    3.41152914785275   -0.62620494207840
C        41.06979824424274    2.75454498883782    0.16081769868583
N        41.39135111962422    1.44292471483161    0.31275445662520
C        39.91945745599686    3.30261780718088    0.74351169312459
C        38.74803864098773    2.55493684951391    0.92665430494363
N        38.45821025795021    1.43237923440473    0.22692202520938
H        37.64550152619609    3.61842734171741    2.58896880683194
H        35.79749505054326    1.81761278665090    2.18161567936552
H        35.98024648607534   -1.84948863468430   -2.20271920831882
H        37.92209358245092   -3.67512859315098   -2.55819029754404
H        40.12092304217636   -4.41294992729078   -0.83167069493928
H        42.35077876392871   -4.28894542187025    1.09320607186032
H        44.11316913237106   -2.37523640223006    1.40448743369178
H        44.42409118501378    0.12825450529719   -0.24562734082012
H        43.91808212432572    2.62825362058880   -1.50057391997500
H        42.05884404661231    4.39829519555415   -1.04140651302320
H        39.92331174762927    4.33616881441629    1.06509790772282
C        21.80006934066038    0.03188516481804    0.00507712405254
C        23.03095043957394    0.05015431636721   -0.00344071590335
C        32.82227588629276    0.01335778421860   -0.00235332142179
C        34.05225032085212   -0.00724738901345    0.00431662784610
Cu       27.94045722625113    0.03320331043049   -0.00549559794328
C        25.67702246868101   -3.27367978997507   -0.86110192032347
C        24.70312276252081   -2.32510831143446   -0.96096561311948
C        25.17032976976993   -1.17162705771022   -0.24009983289706
C        24.46854650485542    0.04742577322537    0.00055718525652
C        25.23230497839822    1.23956341042983    0.24307850779116
C        24.78938567405732    2.40150843822197    0.95148664688951
C        25.76805833633503    3.34048828982262    0.84739217339177
C        26.83111195514298    2.76077150398501    0.08635607720005
N        26.50934774629245    1.45223115066540   -0.21464769817997
C        27.99183003472747    3.40851008572519   -0.34705380624996
C        29.14373224054242    2.70047338624306   -0.69794381050679
C        30.16505587345764    3.04612581701795   -1.64196801399640
C        31.10533105183469    2.05526431257255   -1.57125887472150
C        30.67501098164738    1.13323721776329   -0.56585518549393
N        29.43986791184448    1.49175635168487   -0.11295368650395
C        31.38936233932097    0.02108463337609   -0.01556455306144
C        30.66016599662159   -1.08055741423356    0.51437575065587
C        31.09530301129829   -2.02095869138850    1.49795713426368
C        30.12401088685746   -2.97913827010758    1.59613705767241
C        29.08068648190131   -2.61449420001208    0.67895396344891
N        29.39240094817825   -1.41143919831466    0.09429216549388
C        27.92209756066546   -3.32571054842132    0.32859988652068
C        26.74716185104225   -2.69369260835127   -0.09356569158626
N        26.43379135097495   -1.39257455766698    0.20967939472264
H        25.69134546986737   -4.22772500069415   -1.34894981062230
H        23.79942391042969   -2.41235835636600   -1.53434490262798
H        23.87508652047826    2.46231923804773    1.50391641830619
H        25.82606107369666    4.31545273270906    1.29477170822036
H        28.04503764635049    4.49372367749872   -0.41348620435285
H        30.14790077768491    3.85038979005218   -2.35821285302228
H        31.96077586854374    1.95134247526777   -2.20412304303507
H        31.97793324794471   -1.94167955544922    2.10172451341394
H        30.11374149941198   -3.78470377314088    2.30570419119037