      -----------------------------------------------------------      
     |                   =====================                   |     
     |                           x T B                           |     
     |                   =====================                   |     
     |                         S. Grimme                         |     
     |          Mulliken Center for Theoretical Chemistry        |     
     |                    University of Bonn                     |     
      -----------------------------------------------------------      

   * xtb version 6.4.1 (bd6e46d) compiled by 'conda@4901f00b25ba' on 2021-06-10

   xtb is free software: you can redistribute it and/or modify it under
   the terms of the GNU Lesser General Public License as published by
   the Free Software Foundation, either version 3 of the License, or
   (at your option) any later version.
   
   xtb is distributed in the hope that it will be useful,
   but WITHOUT ANY WARRANTY; without even the implied warranty of
   MERCHANTABILITY or FITNESS FOR A PARTICULAR PURPOSE.  See the
   GNU Lesser General Public License for more details.
   
   Cite this work as:
   * C. Bannwarth, E. Caldeweyher, S. Ehlert, A. Hansen, P. Pracht,
     J. Seibert, S. Spicher, S. Grimme, WIREs Comput. Mol. Sci., 2020, 11,
     e01493. DOI: 10.1002/wcms.1493
   
   for GFN2-xTB:
   * C. Bannwarth, S. Ehlert and S. Grimme., J. Chem. Theory Comput., 2019,
     15, 1652-1671. DOI: 10.1021/acs.jctc.8b01176
   for GFN1-xTB:
   * S. Grimme, C. Bannwarth, P. Shushkov, J. Chem. Theory Comput., 2017,
     13, 1989-2009. DOI: 10.1021/acs.jctc.7b00118
   for GFN0-xTB:
   * P. Pracht, E. Caldeweyher, S. Ehlert, S. Grimme, ChemRxiv, 2019, preprint.
     DOI: 10.26434/chemrxiv.8326202.v1
   for GFN-FF:
   * S. Spicher and S. Grimme, Angew. Chem. Int. Ed., 2020, 59, 15665-15673.
     DOI: 10.1002/anie.202004239
   
   for DFT-D4:
   * E. Caldeweyher, C. Bannwarth and S. Grimme, J. Chem. Phys., 2017,
     147, 034112. DOI: 10.1063/1.4993215
   * E. Caldeweyher, S. Ehlert, A. Hansen, H. Neugebauer, S. Spicher,
     C. Bannwarth and S. Grimme, J. Chem. Phys., 2019, 150, 154122.
     DOI: 10.1063/1.5090222
   * E. Caldeweyher, J.-M. Mewes, S. Ehlert and S. Grimme, Phys. Chem. Chem. Phys.
     2020, 22, 8499-8512. DOI: 10.1039/D0CP00502A
   
   for sTDA-xTB:
   * S. Grimme and C. Bannwarth, J. Chem. Phys., 2016, 145, 054103.
     DOI: 10.1063/1.4959605
   
   in the mass-spec context:
   * V. Asgeirsson, C. Bauer and S. Grimme, Chem. Sci., 2017, 8, 4879.
     DOI: 10.1039/c7sc00601b
   * J. Koopman and S. Grimme, ACS Omega 2019, 4, 12, 15120-15133.
     DOI: 10.1021/acsomega.9b02011
   
   for metadynamics refer to:
   * S. Grimme, J. Chem. Theory Comput., 2019, 155, 2847-2862
     DOI: 10.1021/acs.jctc.9b00143
   
   for SPH calculations refer to:
   * S. Spicher and S. Grimme, J. Chem. Theory Comput., 2021, 17, 1701-1714
     DOI: 10.1021/acs.jctc.0c01306
   
   with help from (in alphabetical order)
   P. Atkinson, C. Bannwarth, F. Bohle, G. Brandenburg, E. Caldeweyher
   M. Checinski, S. Dohm, S. Ehlert, S. Ehrlich, I. Gerasimov, J. Koopman
   C. Lavigne, S. Lehtola, F. März, M. Müller, F. Musil, H. Neugebauer
   J. Pisarek, C. Plett, P. Pracht, J. Seibert, P. Shushkov, S. Spicher
   M. Stahn, M. Steiner, T. Strunk, J. Stückrath, T. Rose, and J. Unsleber
   
 * started run on 2021/11/19 at 12:45:41.528     

           -------------------------------------------------
          |                Calculation Setup                |
           -------------------------------------------------

          program call               : /home/jeff/miniconda3/bin/xtb input_structure_1.xyz --gfn 2 --ohess normal --parallel 1 --etemp 300 --chrg 0 --uhf 0 -I det_control.in
          hostname                   : jelfscompute1
          coordinate file            : input_structure_1.xyz
          omp threads                :                     1
          number of atoms            :                   148
          number of electrons        :                   510
          charge                     :                     0
          spin                       :                   0.0
          first test random number   :      0.94781948742622

   ID    Z sym.   atoms
    1   29 Cu     1, 37, 79, 114
    2    6 C      2-9, 11-15, 17-21, 23, 24, 38-45, 47-51, 53-57, 59, 60,
                  73-78, 80-87, 89-93, 95-99, 101, 102, 115-122, 124-128,
                  130-134, 136, 137
    3    7 N      10, 16, 22, 25, 46, 52, 58, 61, 88, 94, 100, 103, 123, 129,
                  135, 138
    4    1 H      26-36, 62-72, 104-113, 139-148

molecular fragmentation (1/2 indicates fragments):
111111111111111111111111111111111111222222222222222222222222222222222222
222222222222222222222222222222222222222222222222222222222222222222222222
2222
# atoms in fragment 1/2:    36   112
 fragment masses (1/2) :      370.87     1182.67
CMA distance (Bohr)    :  43.435
constraining FC (au)   :  0.0500

           -------------------------------------------------
          |                 G F N 2 - x T B                 |
           -------------------------------------------------

        Reference                      10.1021/acs.jctc.8b01176
      * Hamiltonian:
        H0-scaling (s, p, d)           1.850000    2.230000    2.230000
        zeta-weighting                 0.500000
      * Dispersion:
        s8                             2.700000
        a1                             0.520000
        a2                             5.000000
        s9                             5.000000
      * Repulsion:
        kExp                           1.500000    1.000000
        rExp                           1.000000
      * Coulomb:
        alpha                          2.000000
        third order                    shell-resolved
        anisotropic                    true
        a3                             3.000000
        a5                             4.000000
        cn-shift                       1.200000
        cn-exp                         4.000000
        max-rad                        5.000000


          ...................................................
          :                      SETUP                      :
          :.................................................:
          :  # basis functions                 490          :
          :  # atomic orbitals                 486          :
          :  # shells                          258          :
          :  # electrons                       510          :
          :  max. iterations                   250          :
          :  Hamiltonian                  GFN2-xTB          :
          :  restarted?                      false          :
          :  GBSA solvation                  false          :
          :  PC potential                    false          :
          :  electronic temp.          300.0000000     K    :
          :  accuracy                    1.0000000          :
          :  -> integral cutoff          0.2500000E+02      :
          :  -> integral neglect         0.1000000E-07      :
          :  -> SCF convergence          0.1000000E-05 Eh   :
          :  -> wf. convergence          0.1000000E-03 e    :
          :  Broyden damping             0.4000000          :
          ...................................................

 iter      E             dE          RMSdq      gap      omega  full diag
   1   -271.3907312 -0.271391E+03  0.538E+00    0.00       0.0  T
   2   -270.4808891  0.909842E+00  0.332E+00    0.06       1.0  T
   3   -193.9190433  0.765618E+02  0.124E+01    0.03       1.0  T
   4   -269.1527266 -0.752337E+02  0.362E+00    0.31       1.0  T
   5   -269.3976108 -0.244884E+00  0.192E+00    0.04       1.0  T
   6   -264.8925337  0.450508E+01  0.277E+00    0.07       1.0  T
   7   -270.7315078 -0.583897E+01  0.148E+00    0.06       1.0  T
   8   -269.8864299  0.845078E+00  0.221E+00    0.07       1.0  T
   9   -271.0264753 -0.114005E+01  0.117E+00    0.08       1.0  T
  10   -270.7729055  0.253570E+00  0.114E+00    0.04       1.0  T
  11   -271.2980923 -0.525187E+00  0.766E-01    0.00       1.0  T
  12   -271.2958940  0.219830E-02  0.753E-01    0.21       1.0  T
  13   -271.4193987 -0.123505E+00  0.604E-01    0.07       1.0  T
  14   -271.2926946  0.126704E+00  0.627E-01    0.15       1.0  T
  15   -271.4776355 -0.184941E+00  0.500E-01    0.07       1.0  T
  16   -271.5401897 -0.625542E-01  0.382E-01    0.05       1.0  T
  17   -271.4940602  0.461295E-01  0.449E-01    0.02       1.0  T
  18   -271.5501707 -0.561105E-01  0.314E-01    0.02       1.0  T
  19   -271.5285014  0.216693E-01  0.341E-01    0.04       1.0  T
  20   -271.5494313 -0.209299E-01  0.265E-01    0.01       1.0  T
  21   -271.5936513 -0.442200E-01  0.106E-01    0.00       1.0  T
  22   -271.5722933  0.213580E-01  0.205E-01    0.03       1.0  T
  23   -271.5874195 -0.151262E-01  0.138E-01    0.01       1.0  T
  24   -271.5907200 -0.330048E-02  0.105E-01    0.01       1.0  T
  25   -271.5938834 -0.316344E-02  0.709E-02    0.01       1.0  T
  26   -271.5934838  0.399625E-03  0.691E-02    0.01       1.0  T
  27   -271.5945806 -0.109683E-02  0.526E-02    0.01       1.0  T
  28   -271.5949532 -0.372580E-03  0.465E-02    0.01       1.0  T
  29   -271.5944192  0.534013E-03  0.512E-02    0.01       1.0  T
  30   -271.5951852 -0.766004E-03  0.407E-02    0.00       1.0  T
  31   -271.5951751  0.101310E-04  0.393E-02    0.00       1.0  T
  32   -271.5953147 -0.139659E-03  0.359E-02    0.00       1.0  T
  33   -271.5952461  0.685769E-04  0.344E-02    0.01       1.0  T
  34   -271.5952808 -0.346453E-04  0.329E-02    0.00       1.0  T
  35   -271.5952338  0.469622E-04  0.319E-02    0.01       1.0  T
  36   -271.5952480 -0.141346E-04  0.312E-02    0.01       1.0  T
  37   -271.5952920 -0.440258E-04  0.292E-02    0.01       1.0  T
  38   -271.5952999 -0.789877E-05  0.285E-02    0.01       1.0  T
  39   -271.5953342 -0.343620E-04  0.265E-02    0.00       1.0  T
  40   -271.5953444 -0.101135E-04  0.249E-02    0.00       1.0  T
  41   -271.5953785 -0.341315E-04  0.218E-02    0.00       1.0  T
  42   -271.5954055 -0.269803E-04  0.141E-02    0.00       1.0  T
  43   -271.5954354 -0.299730E-04  0.686E-03    0.00       1.2  T
  44   -271.5954377 -0.227992E-05  0.315E-03    0.00       2.6  T
  45   -271.5954386 -0.923213E-06  0.168E-03    0.00       4.9  T
  46   -271.5954400 -0.133202E-05  0.110E-03    0.00       7.5  T
  47   -271.5954397  0.284894E-06  0.805E-04    0.00      10.2  T
  48   -271.5954399 -0.211118E-06  0.584E-04    0.00      14.1  T

   *** convergence criteria satisfied after 48 iterations ***

         #    Occupation            Energy/Eh            Energy/eV
      -------------------------------------------------------------
         1        2.0000           -0.6827845             -18.5795
       ...           ...                  ...                  ...
       249        2.0000           -0.3572561              -9.7214
       250        2.0000           -0.3571231              -9.7178
       251        2.0000           -0.3570068              -9.7147
       252        2.0000           -0.3554329              -9.6718
       253        2.0000           -0.3538154              -9.6278
       254        1.5560           -0.3344731              -9.1015
       255        1.2447           -0.3337563              -9.0820 (HOMO)
       256        1.1878           -0.3336428              -9.0789 (LUMO)
       257        0.0097           -0.3282219              -8.9314
       258        0.0010           -0.3260826              -8.8732
       259        0.0009           -0.3259306              -8.8690
       260                         -0.3151305              -8.5751
       ...                                ...                  ...
       486                          1.4323576              38.9764
      -------------------------------------------------------------
                  HL-Gap            0.0001135 Eh            0.0031 eV
             Fermi-level           -0.3332817 Eh           -9.0691 eV

 SCC (total)                   0 d,  0 h,  0 min,  2.810 sec
 SCC setup                      ...        0 min,  0.004 sec (  0.142%)
 Dispersion                     ...        0 min,  0.008 sec (  0.297%)
 classical contributions        ...        0 min,  0.001 sec (  0.041%)
 integral evaluation            ...        0 min,  0.074 sec (  2.651%)
 iterations                     ...        0 min,  2.495 sec ( 88.789%)
 molecular gradient             ...        0 min,  0.221 sec (  7.869%)
 printout                       ...        0 min,  0.006 sec (  0.211%)

         :::::::::::::::::::::::::::::::::::::::::::::::::::::
         ::                     SUMMARY                     ::
         :::::::::::::::::::::::::::::::::::::::::::::::::::::
         :: total energy            -266.977222418031 Eh    ::
         :: gradient norm              0.709274240349 Eh/a0 ::
         :: HOMO-LUMO gap              0.003089070834 eV    ::
         ::.................................................::
         :: SCC energy              -271.595439900928 Eh    ::
         :: -> isotropic ES            0.151828121261 Eh    ::
         :: -> anisotropic ES          0.037792104987 Eh    ::
         :: -> anisotropic XC          0.128420329974 Eh    ::
         :: -> dispersion             -0.234546691164 Eh    ::
         :: repulsion energy           4.617492818123 Eh    ::
         :: add. restraining           0.000000000000 Eh    ::
         :: total charge               0.000000000284 e     ::
         :::::::::::::::::::::::::::::::::::::::::::::::::::::

      ----------------------------------------------------------- 
     |                   =====================                   |
     |                        A N C O P T                        |
     |                   =====================                   |
     |               Approximate Normal Coordinate               |
     |                Rational Function Optimizer                |
      ----------------------------------------------------------- 

          ...................................................
          :                      SETUP                      :
          :.................................................:
          :   optimization level            normal          :
          :   max. optcycles                   444          :
          :   ANC micro-cycles                  20          :
          :   degrees of freedom               438          :
          :.................................................:
          :   RF solver                   davidson          :
          :   write xtbopt.log                true          :
          :   linear?                        false          :
          :   energy convergence         0.5000000E-05 Eh   :
          :   grad. convergence          0.1000000E-02 Eh/α :
          :   maximium RF displ.         1.0000000          :
          :   Hlow (freq-cutoff)         0.1000000E-01      :
          :   Hmax (freq-cutoff)         5.0000000          :
          :   S6 in model hess.         20.0000000          :
          ...................................................

generating ANC from model Hessian ...
Using Lindh-Hessian (1995)
 Shifting diagonal of input Hessian by    1.0025105231916163E-002
 Lowest  eigenvalues of input Hessian
    0.010000    0.010002    0.010003    0.010007    0.010013    0.010016
    0.010017    0.010021    0.000000    0.000000    0.000000    0.000000
    0.000000    0.000000    0.010031    0.010034    0.010068    0.010091
 Highest eigenvalues
    2.203901    2.203901    2.210995    2.393222    2.512584    2.732931


........................................................................
.............................. CYCLE    1 ..............................
........................................................................
   1   -271.5954401 -0.271595E+03  0.205E-04    0.00       0.0  T
   2   -271.5954338  0.631772E-05  0.294E-03    0.00       2.8  T
   3   -271.5954397 -0.592969E-05  0.737E-04    0.00      11.2  T
   4   -271.5954390  0.689114E-06  0.119E-03    0.00       6.9  T
   5   -271.5954393 -0.304162E-06  0.991E-04    0.00       8.3  T
   6   -271.5954396 -0.272363E-06  0.845E-04    0.00       9.7  T
     SCC iter.                  ...        0 min,  0.311 sec
     gradient                   ...        0 min,  0.221 sec
 * total energy  :  -266.9772221 Eh     change        0.3224215E-06 Eh
   gradient norm :     0.7092713 Eh/α   predicted     0.0000000E+00 (-100.00%)
   displ. norm   :     0.5607766 α      lambda       -0.3039213E+00
   maximum displ.:     0.1703971 α      in ANC's #151, #149, #150, ...

........................................................................
.............................. CYCLE    2 ..............................
........................................................................
   1   -271.5693345 -0.271569E+03  0.406E-01    0.00       0.0  T
   2   -271.4780451  0.912894E-01  0.549E-01    0.04       1.0  T
   3   -271.1785192  0.299526E+00  0.837E-01    0.06       1.0  T
   4   -271.0236393  0.154880E+00  0.828E-01    0.02       1.0  T
   5   -271.3022526 -0.278613E+00  0.604E-01    0.19       1.0  T
   6   -271.4725798 -0.170327E+00  0.453E-01    0.04       1.0  T
   7   -271.3308638  0.141716E+00  0.520E-01    0.04       1.0  T
   8   -271.4847608 -0.153897E+00  0.379E-01    0.06       1.0  T
   9   -271.5124836 -0.277228E-01  0.345E-01    0.01       1.0  T
  10   -271.4781148  0.343688E-01  0.369E-01    0.09       1.0  T
  11   -271.5267722 -0.486574E-01  0.275E-01    0.06       1.0  T
  12   -271.5779531 -0.511810E-01  0.132E-01    0.02       1.0  T
  13   -271.5863471 -0.839400E-02  0.762E-02    0.00       1.0  T
  14   -271.5775935  0.875364E-02  0.126E-01    0.03       1.0  T
  15   -271.5831472 -0.555366E-02  0.892E-02    0.02       1.0  T
  16   -271.5508219  0.323253E-01  0.219E-01    0.05       1.0  T
  17   -271.5817899 -0.309680E-01  0.939E-02    0.02       1.0  T
  18   -271.5884303 -0.664042E-02  0.195E-02    0.00       1.0  T
  19   -271.5861377  0.229266E-02  0.550E-02    0.01       1.0  T
  20   -271.5882711 -0.213347E-02  0.201E-02    0.00       1.0  T
  21   -271.5883700 -0.988796E-04  0.162E-02    0.00       1.0  T
  22   -271.5885323 -0.162332E-03  0.858E-03    0.00       1.0  T
  23   -271.5884797  0.526428E-04  0.121E-02    0.00       1.0  T
  24   -271.5885461 -0.663742E-04  0.421E-03    0.00       2.0  T
  25   -271.5885158  0.302784E-04  0.741E-03    0.00       1.1  T
  26   -271.5885495 -0.337396E-04  0.293E-03    0.00       2.8  T
  27   -271.5885507 -0.113890E-05  0.245E-03    0.00       3.4  T
  28   -271.5885523 -0.160170E-05  0.164E-03    0.00       5.0  T
  29   -271.5885543 -0.201826E-05  0.655E-04    0.00      12.6  T
  30   -271.5885545 -0.190734E-06  0.337E-04    0.00      24.4  T
  31   -271.5885545  0.607599E-09  0.322E-04    0.00      25.5  T
     SCC iter.                  ...        0 min,  1.585 sec
     gradient                   ...        0 min,  0.221 sec
 * total energy  :  -267.2164730 Eh     change       -0.2392509E+00 Eh
   gradient norm :     0.3861395 Eh/α   predicted    -0.1998127E+00 ( -16.48%)
   displ. norm   :     0.6465171 α      lambda       -0.1908689E+00
   maximum displ.:     0.2153809 α      in ANC's #151, #149, #150, ...

........................................................................
.............................. CYCLE    3 ..............................
........................................................................
   1   -271.5811763 -0.271581E+03  0.547E-01    0.00       0.0  T
   2   -271.0865680  0.494608E+00  0.108E+00    0.11       1.0  T
   3   -270.7165693  0.369999E+00  0.103E+00    0.18       1.0  T
   4   -271.2561116 -0.539542E+00  0.790E-01    0.13       1.0  T
   5   -271.4293621 -0.173251E+00  0.555E-01    0.12       1.0  T
   6   -271.3369141  0.924479E-01  0.703E-01    0.22       1.0  T
   7   -271.3549206 -0.180064E-01  0.634E-01    0.05       1.0  T
   8   -271.4868723 -0.131952E+00  0.430E-01    0.09       1.0  T
   9   -271.5412207 -0.543484E-01  0.373E-01    0.06       1.0  T
  10   -271.5603141 -0.190933E-01  0.347E-01    0.02       1.0  T
  11   -271.6048478 -0.445338E-01  0.210E-01    0.01       1.0  T
  12   -271.5963487  0.849913E-02  0.213E-01    0.04       1.0  T
  13   -271.6213973 -0.250486E-01  0.159E-01    0.03       1.0  T
  14   -271.5480962  0.733011E-01  0.317E-01    0.07       1.0  T
  15   -271.6094855 -0.613893E-01  0.178E-01    0.04       1.0  T
  16   -271.6354883 -0.260028E-01  0.528E-02    0.01       1.0  T
  17   -271.6304196  0.506871E-02  0.966E-02    0.02       1.0  T
  18   -271.6364034 -0.598381E-02  0.448E-02    0.01       1.0  T
  19   -271.6367668 -0.363404E-03  0.381E-02    0.01       1.0  T
  20   -271.6371375 -0.370720E-03  0.316E-02    0.01       1.0  T
  21   -271.6378792 -0.741712E-03  0.145E-02    0.00       1.0  T
  22   -271.6377822  0.970284E-04  0.172E-02    0.00       1.0  T
  23   -271.6378885 -0.106331E-03  0.121E-02    0.00       1.0  T
  24   -271.6379379 -0.493354E-04  0.809E-03    0.00       1.0  T
  25   -271.6379537 -0.157802E-04  0.614E-03    0.00       1.3  T
  26   -271.6379842 -0.305316E-04  0.102E-03    0.00       8.1  T
  27   -271.6379815  0.271019E-05  0.197E-03    0.00       4.2  T
  28   -271.6379833 -0.180081E-05  0.133E-03    0.00       6.2  T
  29   -271.6379830  0.240968E-06  0.135E-03    0.00       6.1  T
  30   -271.6379845 -0.147704E-05  0.322E-04    0.00      25.5  T
  31   -271.6379846 -0.590135E-07  0.168E-04    0.00      48.9  T
  32   -271.6379846 -0.115243E-07  0.126E-04    0.00      65.3  T
     SCC iter.                  ...        0 min,  1.636 sec
     gradient                   ...        0 min,  0.221 sec
 * total energy  :  -267.3572732 Eh     change       -0.1408002E+00 Eh
   gradient norm :     0.1535855 Eh/α   predicted    -0.1353246E+00 (  -3.89%)
   displ. norm   :     0.7229962 α      lambda       -0.9138119E-01
   maximum displ.:     0.2358543 α      in ANC's #151, #149, #150, ...

........................................................................
.............................. CYCLE    4 ..............................
........................................................................
   1   -271.5249543 -0.271525E+03  0.781E-01    0.03       0.0  T
   2   -266.8375294  0.468742E+01  0.283E+00    0.02       1.0  T
   3   -271.1858715 -0.434834E+01  0.959E-01    0.12       1.0  T
   4   -271.0010141  0.184857E+00  0.897E-01    0.04       1.0  T
   5   -271.3834257 -0.382412E+00  0.732E-01    0.22       1.0  T
   6   -271.4295403 -0.461146E-01  0.662E-01    0.16       1.0  T
   7   -271.6064468 -0.176907E+00  0.400E-01    0.06       1.0  T
   8   -271.4891690  0.117278E+00  0.500E-01    0.07       1.0  T
   9   -271.4887148  0.454189E-03  0.570E-01    0.07       1.0  T
  10   -271.5646782 -0.759634E-01  0.441E-01    0.06       1.0  T
  11   -271.6758494 -0.111171E+00  0.229E-01    0.03       1.0  T
  12   -271.6893537 -0.135043E-01  0.184E-01    0.01       1.0  T
  13   -271.6125266  0.768272E-01  0.314E-01    0.07       1.0  T
  14   -271.6928385 -0.803119E-01  0.158E-01    0.02       1.0  T
  15   -271.7073533 -0.145148E-01  0.809E-02    0.01       1.0  T
  16   -271.6998312  0.752216E-02  0.122E-01    0.02       1.0  T
  17   -271.7049269 -0.509578E-02  0.898E-02    0.02       1.0  T
  18   -271.7108817 -0.595472E-02  0.419E-02    0.01       1.0  T
  19   -271.7099688  0.912814E-03  0.491E-02    0.01       1.0  T
  20   -271.7116011 -0.163229E-02  0.296E-02    0.00       1.0  T
  21   -271.7115035  0.976772E-04  0.265E-02    0.00       1.0  T
  22   -271.7121640 -0.660584E-03  0.818E-03    0.00       1.0  T
  23   -271.7115920  0.572082E-03  0.247E-02    0.00       1.0  T
  24   -271.7121051 -0.513099E-03  0.101E-02    0.00       1.0  T
  25   -271.7118104  0.294641E-03  0.206E-02    0.00       1.0  T
  26   -271.7119783 -0.167874E-03  0.153E-02    0.00       1.0  T
  27   -271.7120304 -0.521479E-04  0.129E-02    0.00       1.0  T
  28   -271.7121172 -0.867147E-04  0.869E-03    0.00       1.0  T
  29   -271.7121778 -0.606289E-04  0.390E-03    0.00       2.1  T
  30   -271.7121910 -0.132194E-04  0.142E-03    0.00       5.8  T
  31   -271.7121923 -0.129477E-05  0.878E-04    0.00       9.4  T
  32   -271.7121923 -0.246338E-07  0.841E-04    0.00       9.8  T
  33   -271.7121928 -0.491560E-06  0.461E-04    0.00      17.8  T
     SCC iter.                  ...        0 min,  1.689 sec
     gradient                   ...        0 min,  0.221 sec
 * total energy  :  -267.4310315 Eh     change       -0.7375831E-01 Eh
   gradient norm :     0.0891418 Eh/α   predicted    -0.6957427E-01 (  -5.67%)
   displ. norm   :     0.7925573 α      lambda       -0.6260609E-01
   maximum displ.:     0.2354178 α      in ANC's #77, #74, #149, ...

........................................................................
.............................. CYCLE    5 ..............................
........................................................................
   1   -271.5892744 -0.271589E+03  0.772E-01    0.02       0.0  T
   2   -264.3058035  0.728347E+01  0.328E+00    0.05       1.0  T
   3   -271.1321922 -0.682639E+01  0.112E+00    0.25       1.0  T
   4   -271.2053986 -0.732064E-01  0.837E-01    0.02       1.0  T
   5   -271.4570129 -0.251614E+00  0.709E-01    0.18       1.0  T
   6   -271.4906096 -0.335967E-01  0.634E-01    0.14       1.0  T
   7   -271.6906564 -0.200047E+00  0.383E-01    0.01       1.0  T
   8   -271.1787649  0.511892E+00  0.800E-01    0.06       1.0  T
   9   -271.6939755 -0.515211E+00  0.401E-01    0.01       1.0  T
  10   -271.5229183  0.171057E+00  0.529E-01    0.00       1.0  T
  11   -271.7433303 -0.220412E+00  0.251E-01    0.01       1.0  T
  12   -271.7603792 -0.170489E-01  0.157E-01    0.02       1.0  T
  13   -271.7496436  0.107356E-01  0.179E-01    0.03       1.0  T
  14   -271.7669303 -0.172867E-01  0.128E-01    0.02       1.0  T
  15   -271.7715918 -0.466150E-02  0.915E-02    0.01       1.0  T
  16   -271.7745056 -0.291373E-02  0.685E-02    0.01       1.0  T
  17   -271.7764459 -0.194035E-02  0.393E-02    0.00       1.0  T
  18   -271.7732233  0.322266E-02  0.621E-02    0.01       1.0  T
  19   -271.7765516 -0.332830E-02  0.271E-02    0.00       1.0  T
  20   -271.7766696 -0.118056E-03  0.214E-02    0.00       1.0  T
  21   -271.7768378 -0.168176E-03  0.149E-02    0.00       1.0  T
  22   -271.7768969 -0.591293E-04  0.114E-02    0.00       1.0  T
  23   -271.7767496  0.147284E-03  0.153E-02    0.00       1.0  T
  24   -271.7769977 -0.248030E-03  0.386E-03    0.00       2.1  T
  25   -271.7768767  0.121001E-03  0.108E-02    0.00       1.0  T
  26   -271.7769717 -0.949966E-04  0.578E-03    0.00       1.4  T
  27   -271.7769993 -0.276424E-04  0.212E-03    0.00       3.9  T
  28   -271.7770024 -0.306736E-05  0.141E-03    0.00       5.8  T
  29   -271.7770026 -0.193506E-06  0.123E-03    0.00       6.7  T
  30   -271.7770017  0.897928E-06  0.148E-03    0.00       5.6  T
  31   -271.7770035 -0.177886E-05  0.607E-04    0.00      13.6  T
  32   -271.7770037 -0.260095E-06  0.320E-04    0.00      25.7  T
  33   -271.7770037 -0.175081E-07  0.261E-04    0.00      31.5  T
     SCC iter.                  ...        0 min,  1.690 sec
     gradient                   ...        0 min,  0.221 sec
 * total energy  :  -267.4846849 Eh     change       -0.5365342E-01 Eh
   gradient norm :     0.0753343 Eh/α   predicted    -0.5096596E-01 (  -5.01%)
   displ. norm   :     0.8390368 α      lambda       -0.4934356E-01
   maximum displ.:     0.2684441 α      in ANC's #77, #74, #20, ...

........................................................................
.............................. CYCLE    6 ..............................
........................................................................
   1   -271.7735208 -0.271774E+03  0.499E-01    0.03       0.0  T
   2   -270.1708924  0.160263E+01  0.140E+00    0.03       1.0  T
   3   -271.3517833 -0.118089E+01  0.865E-01    0.25       1.0  T
   4   -271.3881225 -0.363392E-01  0.790E-01    0.20       1.0  T
   5   -271.0579991  0.330123E+00  0.906E-01    0.09       1.0  T
   6   -271.3515312 -0.293532E+00  0.765E-01    0.12       1.0  T
   7   -271.4568044 -0.105273E+00  0.662E-01    0.03       1.0  T
   8   -271.6330124 -0.176208E+00  0.577E-01    0.07       1.0  T
   9   -271.5877904  0.452220E-01  0.503E-01    0.04       1.0  T
  10   -271.8072331 -0.219443E+00  0.213E-01    0.00       1.0  T
  11   -271.7346253  0.726077E-01  0.313E-01    0.06       1.0  T
  12   -271.8217352 -0.871099E-01  0.160E-01    0.00       1.0  T
  13   -271.7866228  0.351124E-01  0.202E-01    0.04       1.0  T
  14   -271.7044034  0.822194E-01  0.353E-01    0.06       1.0  T
  15   -271.8301625 -0.125759E+00  0.807E-02    0.00       1.0  T
  16   -271.8083716  0.217909E-01  0.158E-01    0.03       1.0  T
  17   -271.8283942 -0.200226E-01  0.654E-02    0.01       1.0  T
  18   -271.8312657 -0.287150E-02  0.507E-02    0.01       1.0  T
  19   -271.8325195 -0.125376E-02  0.302E-02    0.00       1.0  T
  20   -271.8327752 -0.255707E-03  0.169E-02    0.00       1.0  T
  21   -271.8326983  0.768993E-04  0.190E-02    0.00       1.0  T
  22   -271.8329130 -0.214732E-03  0.118E-02    0.00       1.0  T
  23   -271.8329661 -0.530922E-04  0.103E-02    0.00       1.0  T
  24   -271.8329969 -0.307793E-04  0.824E-03    0.00       1.0  T
  25   -271.8330633 -0.664005E-04  0.154E-03    0.00       5.3  T
  26   -271.8330569  0.639928E-05  0.291E-03    0.00       2.8  T
  27   -271.8330588 -0.189294E-05  0.247E-03    0.00       3.3  T
  28   -271.8330611 -0.237910E-05  0.188E-03    0.00       4.4  T
  29   -271.8330644 -0.330526E-05  0.594E-04    0.00      13.8  T
  30   -271.8330646 -0.184401E-06  0.433E-04    0.00      19.0  T
  31   -271.8330646  0.448688E-07  0.467E-04    0.00      17.6  T
     SCC iter.                  ...        0 min,  1.586 sec
     gradient                   ...        0 min,  0.221 sec
 * total energy  :  -267.5286094 Eh     change       -0.4392444E-01 Eh
   gradient norm :     0.0633699 Eh/α   predicted    -0.4204029E-01 (  -4.29%)
   displ. norm   :     0.8934725 α      lambda       -0.4297187E-01
   maximum displ.:     0.3017684 α      in ANC's #20, #74, #77, ...

........................................................................
.............................. CYCLE    7 ..............................
........................................................................
   1   -271.8598613 -0.271860E+03  0.388E-01    0.01       0.0  T
   2   -270.6784716  0.118139E+01  0.125E+00    0.20       1.0  T
   3   -271.5137786 -0.835307E+00  0.786E-01    0.07       1.0  T
   4   -271.7665220 -0.252743E+00  0.470E-01    0.03       1.0  T
   5   -271.3279682  0.438554E+00  0.880E-01    0.16       1.0  T
   6   -271.6426305 -0.314662E+00  0.639E-01    0.01       1.0  T
   7   -271.5322961  0.110334E+00  0.632E-01    0.02       1.0  T
   8   -271.5732468 -0.409507E-01  0.606E-01    0.15       1.0  T
   9   -271.7689922 -0.195745E+00  0.427E-01    0.03       1.0  T
  10   -271.7395154  0.294768E-01  0.423E-01    0.06       1.0  T
  11   -271.8657217 -0.126206E+00  0.155E-01    0.02       1.0  T
  12   -271.8167348  0.489869E-01  0.273E-01    0.05       1.0  T
  13   -271.8406127 -0.238779E-01  0.206E-01    0.04       1.0  T
  14   -271.7574974  0.831153E-01  0.358E-01    0.06       1.0  T
  15   -271.8152326 -0.577352E-01  0.263E-01    0.05       1.0  T
  16   -271.8272676 -0.120350E-01  0.228E-01    0.04       1.0  T
  17   -271.8755246 -0.482570E-01  0.571E-02    0.00       1.0  T
  18   -271.8768005 -0.127586E-02  0.386E-02    0.00       1.0  T
  19   -271.8760657  0.734756E-03  0.469E-02    0.01       1.0  T
  20   -271.8774810 -0.141533E-02  0.212E-02    0.00       1.0  T
  21   -271.8774912 -0.101362E-04  0.209E-02    0.01       1.0  T
  22   -271.8777633 -0.272101E-03  0.118E-02    0.00       1.0  T
  23   -271.8778455 -0.822531E-04  0.732E-03    0.00       1.1  T
  24   -271.8778808 -0.352948E-04  0.260E-03    0.00       3.2  T
  25   -271.8778725  0.830747E-05  0.376E-03    0.00       2.2  T
  26   -271.8778798 -0.726459E-05  0.251E-03    0.00       3.3  T
  27   -271.8778715  0.828108E-05  0.389E-03    0.00       2.1  T
  28   -271.8778790 -0.752748E-05  0.263E-03    0.00       3.1  T
  29   -271.8778836 -0.462306E-05  0.131E-03    0.00       6.3  T
  30   -271.8778852 -0.160949E-05  0.229E-04    0.00      35.9  T
  31   -271.8778852  0.162575E-07  0.238E-04    0.00      34.6  T
  32   -271.8778852  0.632446E-08  0.248E-04    0.00      33.2  T
     SCC iter.                  ...        0 min,  1.638 sec
     gradient                   ...        0 min,  0.222 sec
 * total energy  :  -267.5700184 Eh     change       -0.4140899E-01 Eh
   gradient norm :     0.0620783 Eh/α   predicted    -0.3863804E-01 (  -6.69%)
   displ. norm   :     0.9670445 α      lambda       -0.4692148E-01
   maximum displ.:     0.3211110 α      in ANC's #20, #46, #13, ...

........................................................................
.............................. CYCLE    8 ..............................
........................................................................
   1   -271.8845815 -0.271885E+03  0.420E-01    0.03       0.0  T
   2   -270.7025005  0.118208E+01  0.124E+00    0.28       1.0  T
   3   -271.4036723 -0.701172E+00  0.864E-01    0.17       1.0  T
   4   -271.5359738 -0.132302E+00  0.757E-01    0.11       1.0  T
   5   -271.4709953  0.649785E-01  0.754E-01    0.01       1.0  T
   6   -271.5275597 -0.565644E-01  0.713E-01    0.02       1.0  T
   7   -271.7009284 -0.173369E+00  0.539E-01    0.05       1.0  T
   8   -271.6993028  0.162555E-02  0.569E-01    0.11       1.0  T
   9   -271.7655881 -0.662853E-01  0.468E-01    0.08       1.0  T
  10   -271.8736518 -0.108064E+00  0.243E-01    0.02       1.0  T
  11   -271.9047388 -0.310871E-01  0.143E-01    0.02       1.0  T
  12   -271.8898147  0.149241E-01  0.201E-01    0.00       1.0  T
  13   -271.8875192  0.229549E-02  0.200E-01    0.04       1.0  T
  14   -271.8888191 -0.129986E-02  0.193E-01    0.02       1.0  T
  15   -271.9088680 -0.200489E-01  0.106E-01    0.01       1.0  T
  16   -271.9128029 -0.393488E-02  0.676E-02    0.01       1.0  T
  17   -271.9137433 -0.940447E-03  0.562E-02    0.01       1.0  T
  18   -271.9158501 -0.210684E-02  0.227E-02    0.00       1.0  T
  19   -271.9158724 -0.222798E-04  0.211E-02    0.00       1.0  T
  20   -271.9161500 -0.277623E-03  0.101E-02    0.00       1.0  T
  21   -271.9161893 -0.392423E-04  0.546E-03    0.00       1.5  T
  22   -271.9162057 -0.164410E-04  0.293E-03    0.00       2.8  T
  23   -271.9161992  0.654199E-05  0.387E-03    0.00       2.1  T
  24   -271.9162098 -0.105859E-04  0.126E-03    0.00       6.5  T
  25   -271.9162089  0.911784E-06  0.170E-03    0.00       4.8  T
  26   -271.9162089 -0.749588E-07  0.145E-03    0.00       5.7  T
  27   -271.9162100 -0.106664E-05  0.877E-04    0.00       9.4  T
  28   -271.9162102 -0.154263E-06  0.695E-04    0.00      11.8  T
  29   -271.9162105 -0.352176E-06  0.210E-04    0.00      39.2  T
     SCC iter.                  ...        0 min,  1.486 sec
     gradient                   ...        0 min,  0.222 sec
 * total energy  :  -267.6179838 Eh     change       -0.4796540E-01 Eh
   gradient norm :     0.0756594 Eh/α   predicted    -0.4540065E-01 (  -5.35%)
   displ. norm   :     0.9490117 α      lambda       -0.4942493E-01
   maximum displ.:     0.3273703 α      in ANC's #46, #20, #13, ...

........................................................................
.............................. CYCLE    9 ..............................
........................................................................
   1   -271.9290210 -0.271929E+03  0.349E-01    0.00       0.0  T
   2   -271.5933580  0.335663E+00  0.714E-01    0.06       1.0  T
   3   -271.4062953  0.187063E+00  0.877E-01    0.21       1.0  T
   4   -271.4925018 -0.862065E-01  0.788E-01    0.09       1.0  T
   5   -271.6458538 -0.153352E+00  0.679E-01    0.06       1.0  T
   6   -271.6718984 -0.260446E-01  0.576E-01    0.03       1.0  T
   7   -271.6170376  0.548608E-01  0.678E-01    0.11       1.0  T
   8   -271.7178214 -0.100784E+00  0.519E-01    0.07       1.0  T
   9   -271.9136219 -0.195801E+00  0.188E-01    0.03       1.0  T
  10   -271.8923143  0.213076E-01  0.246E-01    0.03       1.0  T
  11   -271.9132857 -0.209714E-01  0.170E-01    0.02       1.0  T
  12   -271.8898448  0.234409E-01  0.244E-01    0.04       1.0  T
  13   -271.9172530 -0.274082E-01  0.150E-01    0.03       1.0  T
  14   -271.9319170 -0.146640E-01  0.629E-02    0.01       1.0  T
  15   -271.9274835  0.443346E-02  0.968E-02    0.02       1.0  T
  16   -271.9333704 -0.588692E-02  0.396E-02    0.01       1.0  T
  17   -271.9331070  0.263450E-03  0.438E-02    0.01       1.0  T
  18   -271.9339992 -0.892218E-03  0.280E-02    0.00       1.0  T
  19   -271.9340786 -0.794259E-04  0.245E-02    0.00       1.0  T
  20   -271.9345288 -0.450157E-03  0.716E-03    0.00       1.1  T
  21   -271.9345529 -0.240623E-04  0.408E-03    0.00       2.0  T
  22   -271.9345563 -0.347770E-05  0.333E-03    0.00       2.5  T
  23   -271.9345628 -0.648115E-05  0.147E-03    0.00       5.6  T
  24   -271.9345560  0.676456E-05  0.322E-03    0.00       2.6  T
  25   -271.9345633 -0.723410E-05  0.115E-03    0.00       7.2  T
  26   -271.9345630  0.301732E-06  0.127E-03    0.00       6.5  T
  27   -271.9345635 -0.544161E-06  0.922E-04    0.00       8.9  T
  28   -271.9345640 -0.521100E-06  0.420E-04    0.00      19.6  T
     SCC iter.                  ...        0 min,  1.434 sec
     gradient                   ...        0 min,  0.222 sec
 * total energy  :  -267.6683957 Eh     change       -0.5041193E-01 Eh
   gradient norm :     0.0922008 Eh/α   predicted    -0.4696910E-01 (  -6.83%)
   displ. norm   :     0.9130624 α      lambda       -0.5058434E-01
   maximum displ.:     0.3344265 α      in ANC's #13, #46, #20, ...

........................................................................
.............................. CYCLE   10 ..............................
........................................................................
   1   -271.9445390 -0.271945E+03  0.312E-01    0.01       0.0  T
   2   -271.5266029  0.417936E+00  0.744E-01    0.04       1.0  T
   3   -271.6150227 -0.884198E-01  0.739E-01    0.11       1.0  T
   4   -271.3269790  0.288044E+00  0.898E-01    0.16       1.0  T
   5   -271.7758993 -0.448920E+00  0.528E-01    0.09       1.0  T
   6   -271.5497774  0.226122E+00  0.712E-01    0.01       1.0  T
   7   -271.7580274 -0.208250E+00  0.520E-01    0.03       1.0  T
   8   -271.7958777 -0.378503E-01  0.463E-01    0.06       1.0  T
   9   -271.8984250 -0.102547E+00  0.261E-01    0.03       1.0  T
  10   -271.8227601  0.756649E-01  0.412E-01    0.04       1.0  T
  11   -271.9165891 -0.938290E-01  0.207E-01    0.04       1.0  T
  12   -271.9378486 -0.212596E-01  0.141E-01    0.02       1.0  T
  13   -271.9407803 -0.293165E-02  0.121E-01    0.01       1.0  T
  14   -271.9488347 -0.805438E-02  0.468E-02    0.00       1.0  T
  15   -271.9448569  0.397773E-02  0.862E-02    0.01       1.0  T
  16   -271.9496549 -0.479800E-02  0.338E-02    0.00       1.0  T
  17   -271.9487125  0.942379E-03  0.465E-02    0.01       1.0  T
  18   -271.9500709 -0.135833E-02  0.210E-02    0.00       1.0  T
  19   -271.9499788  0.921057E-04  0.235E-02    0.00       1.0  T
  20   -271.9503049 -0.326139E-03  0.119E-02    0.00       1.0  T
  21   -271.9503721 -0.672120E-04  0.606E-03    0.00       1.4  T
  22   -271.9503982 -0.260440E-04  0.151E-03    0.00       5.4  T
  23   -271.9503992 -0.107449E-05  0.671E-04    0.00      12.3  T
  24   -271.9503983  0.945108E-06  0.131E-03    0.00       6.3  T
  25   -271.9503986 -0.279937E-06  0.110E-03    0.00       7.4  T
  26   -271.9503991 -0.498613E-06  0.660E-04    0.00      12.4  T
  27   -271.9503985  0.535269E-06  0.104E-03    0.00       7.9  T
  28   -271.9503992 -0.634055E-06  0.499E-04    0.00      16.5  T
     SCC iter.                  ...        0 min,  1.432 sec
     gradient                   ...        0 min,  0.222 sec
 * total energy  :  -267.7167831 Eh     change       -0.4838739E-01 Eh
   gradient norm :     0.0955009 Eh/α   predicted    -0.4637791E-01 (  -4.15%)
   displ. norm   :     0.9173213 α      lambda       -0.6751814E-01
   maximum displ.:     0.3386554 α      in ANC's #13, #46, #30, ...

........................................................................
.............................. CYCLE   11 ..............................
........................................................................
   1   -271.9007384 -0.271901E+03  0.473E-01    0.05       0.0  T
   2   -256.9933500  0.149074E+02  0.638E+00    0.12       1.0  T
   3   -270.8399913 -0.138466E+02  0.117E+00    0.04       1.0  T
   4   -271.5292939 -0.689303E+00  0.817E-01    0.12       1.0  T
   5   -271.7387245 -0.209431E+00  0.679E-01    0.03       1.0  T
   6   -271.7898081 -0.510836E-01  0.602E-01    0.04       1.0  T
   7   -271.8213240 -0.315159E-01  0.522E-01    0.02       1.0  T
   8   -271.4657823  0.355542E+00  0.802E-01    0.05       1.0  T
   9   -271.8349009 -0.369119E+00  0.452E-01    0.01       1.0  T
  10   -271.7164549  0.118446E+00  0.659E-01    0.07       1.0  T
  11   -271.8296678 -0.113213E+00  0.486E-01    0.06       1.0  T
  12   -271.9258680 -0.962001E-01  0.301E-01    0.02       1.0  T
  13   -271.8776934  0.481746E-01  0.396E-01    0.07       1.0  T
  14   -271.9924267 -0.114733E+00  0.106E-01    0.02       1.0  T
  15   -271.9944237 -0.199703E-02  0.886E-02    0.01       1.0  T
  16   -271.9943822  0.415443E-04  0.846E-02    0.01       1.0  T
  17   -271.9983524 -0.397021E-02  0.495E-02    0.00       1.0  T
  18   -271.9989675 -0.615187E-03  0.332E-02    0.00       1.0  T
  19   -271.9971732  0.179437E-02  0.647E-02    0.01       1.0  T
  20   -271.9989911 -0.181797E-02  0.303E-02    0.00       1.0  T
  21   -271.9991172 -0.126071E-03  0.296E-02    0.00       1.0  T
  22   -271.9991146  0.259372E-05  0.297E-02    0.00       1.0  T
  23   -271.9990571  0.575335E-04  0.311E-02    0.00       1.0  T
  24   -271.9990813 -0.241655E-04  0.296E-02    0.00       1.0  T
  25   -271.9990901 -0.882456E-05  0.285E-02    0.00       1.0  T
  26   -271.9991111 -0.210191E-04  0.269E-02    0.00       1.0  T
  27   -271.9991005  0.106422E-04  0.257E-02    0.00       1.0  T
  28   -271.9991103 -0.988647E-05  0.226E-02    0.00       1.0  T
  29   -271.9991540 -0.436395E-04  0.179E-02    0.00       1.0  T
  30   -271.9991385  0.154763E-04  0.147E-02    0.00       1.0  T
  31   -271.9991853 -0.467651E-04  0.605E-03    0.00       1.4  T
  32   -271.9991816  0.372130E-05  0.512E-03    0.00       1.6  T
  33   -271.9991896 -0.807521E-05  0.219E-03    0.00       3.7  T
  34   -271.9991901 -0.491409E-06  0.782E-04    0.00      10.5  T
  35   -271.9991902 -0.530594E-07  0.883E-04    0.00       9.3  T
     SCC iter.                  ...        0 min,  1.792 sec
     gradient                   ...        0 min,  0.222 sec
 * total energy  :  -267.7624171 Eh     change       -0.4563403E-01 Eh
   gradient norm :     0.0913506 Eh/α   predicted    -0.6216660E-01 (  36.23%)
   displ. norm   :     0.7735646 α      lambda       -0.3937135E-01
   maximum displ.:     0.3589490 α      in ANC's #20, #13, #30, ...

........................................................................
.............................. CYCLE   12 ..............................
........................................................................
   1   -272.0011616 -0.272001E+03  0.241E-01    0.00       0.0  T
   2   -271.5085059  0.492656E+00  0.870E-01    0.11       1.0  T
   3   -271.5899649 -0.814590E-01  0.745E-01    0.06       1.0  T
   4   -271.8257052 -0.235740E+00  0.529E-01    0.07       1.0  T
   5   -271.6811135  0.144592E+00  0.736E-01    0.11       1.0  T
   6   -271.9632477 -0.282134E+00  0.360E-01    0.04       1.0  T
   7   -271.9235852  0.396626E-01  0.337E-01    0.06       1.0  T
   8   -271.9679088 -0.443237E-01  0.258E-01    0.00       1.0  T
   9   -271.9842001 -0.162913E-01  0.206E-01    0.02       1.0  T
  10   -271.9974535 -0.132534E-01  0.141E-01    0.01       1.0  T
  11   -272.0000250 -0.257152E-02  0.129E-01    0.01       1.0  T
  12   -272.0005597 -0.534728E-03  0.124E-01    0.01       1.0  T
  13   -272.0093714 -0.881162E-02  0.507E-02    0.01       1.0  T
  14   -272.0093913 -0.199260E-04  0.543E-02    0.00       1.0  T
  15   -272.0109926 -0.160134E-02  0.280E-02    0.00       1.0  T
  16   -272.0112561 -0.263482E-03  0.193E-02    0.00       1.0  T
  17   -272.0114997 -0.243546E-03  0.627E-03    0.00       1.3  T
  18   -272.0115098 -0.101210E-04  0.493E-03    0.00       1.7  T
  19   -272.0115251 -0.152915E-04  0.206E-03    0.00       4.0  T
  20   -272.0115235  0.161171E-05  0.272E-03    0.00       3.0  T
  21   -272.0115240 -0.570438E-06  0.225E-03    0.00       3.7  T
  22   -272.0115272 -0.313826E-05  0.108E-03    0.00       7.6  T
  23   -272.0115277 -0.556659E-06  0.612E-04    0.00      13.4  T
  24   -272.0115280 -0.234438E-06  0.183E-04    0.00      45.0  T
     SCC iter.                  ...        0 min,  1.229 sec
     gradient                   ...        0 min,  0.222 sec
 * total energy  :  -267.7943473 Eh     change       -0.3193016E-01 Eh
   gradient norm :     0.0663781 Eh/α   predicted    -0.3146557E-01 (  -1.46%)
   displ. norm   :     0.7901246 α      lambda       -0.3808431E-01
   maximum displ.:     0.3614124 α      in ANC's #13, #20, #30, ...

........................................................................
.............................. CYCLE   13 ..............................
........................................................................
   1   -272.0460302 -0.272046E+03  0.325E-01    0.01       0.0  T
   2   -270.8915983  0.115443E+01  0.120E+00    0.00       1.0  T
   3   -271.8514708 -0.959872E+00  0.612E-01    0.02       1.0  T
   4   -271.9018336 -0.503628E-01  0.540E-01    0.04       1.0  T
   5   -271.9390331 -0.371995E-01  0.471E-01    0.03       1.0  T
   6   -271.7301036  0.208929E+00  0.691E-01    0.05       1.0  T
   7   -272.0043148 -0.274211E+00  0.335E-01    0.04       1.0  T
   8   -271.8598378  0.144477E+00  0.552E-01    0.05       1.0  T
   9   -272.0409472 -0.181109E+00  0.240E-01    0.02       1.0  T
  10   -272.0451784 -0.423124E-02  0.207E-01    0.03       1.0  T
  11   -272.0565483 -0.113699E-01  0.180E-01    0.00       1.0  T
  12   -272.0645428 -0.799444E-02  0.142E-01    0.01       1.0  T
  13   -272.0741751 -0.963235E-02  0.633E-02    0.01       1.0  T
  14   -272.0730928  0.108233E-02  0.732E-02    0.01       1.0  T
  15   -272.0768227 -0.372997E-02  0.178E-02    0.00       1.0  T
  16   -272.0767657  0.570873E-04  0.198E-02    0.00       1.0  T
  17   -272.0769435 -0.177833E-03  0.951E-03    0.00       1.0  T
  18   -272.0768806  0.628431E-04  0.119E-02    0.00       1.0  T
  19   -272.0768936 -0.129889E-04  0.127E-02    0.00       1.0  T
  20   -272.0769083 -0.146980E-04  0.115E-02    0.00       1.0  T
  21   -272.0769573 -0.490121E-04  0.715E-03    0.00       1.1  T
  22   -272.0769787 -0.213531E-04  0.438E-03    0.00       1.9  T
  23   -272.0769887 -0.995107E-05  0.199E-03    0.00       4.1  T
  24   -272.0769905 -0.182245E-05  0.112E-03    0.00       7.3  T
  25   -272.0769904  0.916326E-07  0.114E-03    0.00       7.2  T
  26   -272.0769913 -0.890330E-06  0.284E-04    0.00      29.0  T
  27   -272.0769913 -0.359734E-08  0.268E-04    0.00      30.7  T
     SCC iter.                  ...        0 min,  1.385 sec
     gradient                   ...        0 min,  0.223 sec
 * total energy  :  -267.8186043 Eh     change       -0.2425709E-01 Eh
   gradient norm :     0.0832622 Eh/α   predicted    -0.3093003E-01 (  27.51%)
   displ. norm   :     0.8140447 α      lambda       -0.3103158E-01
   maximum displ.:     0.4465923 α      in ANC's #13, #20, #30, ...

........................................................................
.............................. CYCLE   14 ..............................
........................................................................
   1   -272.1025585 -0.272103E+03  0.241E-01    0.01       0.0  T
   2   -271.5067415  0.595817E+00  0.104E+00    0.32       1.0  T
   3   -271.6416997 -0.134958E+00  0.824E-01    0.22       1.0  T
   4   -271.9679641 -0.326264E+00  0.519E-01    0.04       1.0  T
   5   -271.9674331  0.531001E-03  0.491E-01    0.03       1.0  T
   6   -271.9761001 -0.866695E-02  0.476E-01    0.03       1.0  T
   7   -271.9622760  0.138241E-01  0.479E-01    0.01       1.0  T
   8   -272.0627339 -0.100458E+00  0.297E-01    0.02       1.0  T
   9   -272.0671384 -0.440455E-02  0.296E-01    0.01       1.0  T
  10   -272.1038911 -0.367527E-01  0.184E-01    0.01       1.0  T
  11   -272.1211010 -0.172099E-01  0.873E-02    0.01       1.0  T
  12   -272.1248157 -0.371471E-02  0.467E-02    0.00       1.0  T
  13   -272.1251321 -0.316349E-03  0.407E-02    0.00       1.0  T
  14   -272.1259653 -0.833260E-03  0.207E-02    0.00       1.0  T
  15   -272.1258486  0.116706E-03  0.237E-02    0.00       1.0  T
  16   -272.1261182 -0.269589E-03  0.144E-02    0.00       1.0  T
  17   -272.1262356 -0.117365E-03  0.592E-03    0.00       1.4  T
  18   -272.1262548 -0.191653E-04  0.253E-03    0.00       3.2  T
  19   -272.1262579 -0.316506E-05  0.155E-03    0.00       5.3  T
  20   -272.1262585 -0.562260E-06  0.115E-03    0.00       7.1  T
  21   -272.1262590 -0.468111E-06  0.765E-04    0.00      10.7  T
  22   -272.1262591 -0.194843E-06  0.586E-04    0.00      14.0  T
     SCC iter.                  ...        0 min,  1.128 sec
     gradient                   ...        0 min,  0.222 sec
 * total energy  :  -267.8446559 Eh     change       -0.2605155E-01 Eh
   gradient norm :     0.0511054 Eh/α   predicted    -0.2579762E-01 (  -0.97%)
   displ. norm   :     0.8606592 α      lambda       -0.2376973E-01
   maximum displ.:     0.4857579 α      in ANC's #13, #20, #18, ...

........................................................................
.............................. CYCLE   15 ..............................
........................................................................
   1   -272.1514687 -0.272151E+03  0.217E-01    0.00       0.0  T
   2   -271.5499849  0.601484E+00  0.104E+00    0.51       1.0  T
   3   -271.9740172 -0.424032E+00  0.568E-01    0.02       1.0  T
   4   -271.9973632 -0.233461E-01  0.518E-01    0.00       1.0  T
   5   -271.9711726  0.261907E-01  0.544E-01    0.07       1.0  T
   6   -271.9957926 -0.246200E-01  0.510E-01    0.04       1.0  T
   7   -272.0451408 -0.493482E-01  0.422E-01    0.01       1.0  T
   8   -272.1438769 -0.987361E-01  0.195E-01    0.01       1.0  T
   9   -272.1278434  0.160335E-01  0.257E-01    0.00       1.0  T
  10   -272.1411269 -0.132835E-01  0.215E-01    0.00       1.0  T
  11   -272.1627716 -0.216447E-01  0.115E-01    0.01       1.0  T
  12   -272.1711074 -0.833587E-02  0.265E-02    0.00       1.0  T
  13   -272.1713987 -0.291262E-03  0.126E-02    0.00       1.0  T
  14   -272.1713025  0.961684E-04  0.172E-02    0.00       1.0  T
  15   -272.1713096 -0.702632E-05  0.171E-02    0.00       1.0  T
  16   -272.1713833 -0.737380E-04  0.135E-02    0.00       1.0  T
  17   -272.1714364 -0.531492E-04  0.101E-02    0.00       1.0  T
  18   -272.1714990 -0.625741E-04  0.261E-03    0.00       3.1  T
  19   -272.1715028 -0.377955E-05  0.131E-03    0.00       6.3  T
  20   -272.1715034 -0.634653E-06  0.981E-04    0.00       8.4  T
  21   -272.1715038 -0.416636E-06  0.523E-04    0.00      15.7  T
     SCC iter.                  ...        0 min,  1.075 sec
     gradient                   ...        0 min,  0.224 sec
 * total energy  :  -267.8660008 Eh     change       -0.2134494E-01 Eh
   gradient norm :     0.0389976 Eh/α   predicted    -0.2068839E-01 (  -3.08%)
   displ. norm   :     0.9092906 α      lambda       -0.2224032E-01
   maximum displ.:     0.5027530 α      in ANC's #13, #20, #18, ...

........................................................................
.............................. CYCLE   16 ..............................
........................................................................
   1   -272.1855004 -0.272186E+03  0.257E-01    0.01       0.0  T
   2   -271.5374807  0.648020E+00  0.110E+00    0.40       1.0  T
   3   -272.0230081 -0.485527E+00  0.556E-01    0.04       1.0  T
   4   -271.9944290  0.285791E-01  0.580E-01    0.02       1.0  T
   5   -271.9484896  0.459394E-01  0.653E-01    0.10       1.0  T
   6   -271.9835974 -0.351078E-01  0.589E-01    0.05       1.0  T
   7   -272.0599088 -0.763114E-01  0.490E-01    0.06       1.0  T
   8   -272.1633454 -0.103437E+00  0.279E-01    0.01       1.0  T
   9   -272.1962813 -0.329360E-01  0.173E-01    0.01       1.0  T
  10   -272.1961332  0.148154E-03  0.170E-01    0.00       1.0  T
  11   -272.2051578 -0.902462E-02  0.108E-01    0.02       1.0  T
  12   -272.2034113  0.174643E-02  0.128E-01    0.01       1.0  T
  13   -272.2133104 -0.989909E-02  0.367E-02    0.00       1.0  T
  14   -272.2141793 -0.868861E-03  0.561E-03    0.00       1.5  T
  15   -272.2137176  0.461695E-03  0.252E-02    0.00       1.0  T
  16   -272.2138393 -0.121674E-03  0.236E-02    0.00       1.0  T
  17   -272.2139995 -0.160207E-03  0.163E-02    0.00       1.0  T
  18   -272.2141761 -0.176587E-03  0.515E-03    0.00       1.6  T
  19   -272.2141856 -0.957621E-05  0.298E-03    0.00       2.8  T
  20   -272.2141879 -0.224146E-05  0.255E-03    0.00       3.2  T
  21   -272.2141911 -0.319988E-05  0.129E-03    0.00       6.4  T
  22   -272.2141920 -0.902909E-06  0.576E-04    0.00      14.3  T
  23   -272.2141921 -0.163609E-06  0.337E-04    0.00      24.4  T
     SCC iter.                  ...        0 min,  1.179 sec
     gradient                   ...        0 min,  0.223 sec
 * total energy  :  -267.8849452 Eh     change       -0.1894438E-01 Eh
   gradient norm :     0.0333859 Eh/α   predicted    -0.2031445E-01 (   7.23%)
   displ. norm   :     0.9173108 α      lambda       -0.2095731E-01
   maximum displ.:     0.4932324 α      in ANC's #13, #20, #18, ...

........................................................................
.............................. CYCLE   17 ..............................
........................................................................
   1   -272.2222483 -0.272222E+03  0.277E-01    0.01       0.0  T
   2   -271.5071985  0.715050E+00  0.115E+00    0.15       1.0  T
   3   -271.7259922 -0.218794E+00  0.866E-01    0.25       1.0  T
   4   -271.9383644 -0.212372E+00  0.697E-01    0.09       1.0  T
   5   -272.0374280 -0.990635E-01  0.561E-01    0.04       1.0  T
   6   -272.1008696 -0.634416E-01  0.439E-01    0.07       1.0  T
   7   -271.9278392  0.173030E+00  0.727E-01    0.16       1.0  T
   8   -272.1739671 -0.246128E+00  0.329E-01    0.03       1.0  T
   9   -272.1622476  0.117195E-01  0.361E-01    0.01       1.0  T
  10   -272.1991382 -0.368906E-01  0.277E-01    0.02       1.0  T
  11   -272.2517994 -0.526611E-01  0.450E-02    0.00       1.0  T
  12   -272.2510413  0.758082E-03  0.537E-02    0.00       1.0  T
  13   -272.2507175  0.323752E-03  0.534E-02    0.01       1.0  T
  14   -272.2528370 -0.211943E-02  0.112E-02    0.00       1.0  T
  15   -272.2527723  0.646059E-04  0.143E-02    0.00       1.0  T
  16   -272.2528735 -0.101134E-03  0.739E-03    0.00       1.1  T
  17   -272.2528535  0.200313E-04  0.854E-03    0.00       1.0  T
  18   -272.2529012 -0.477173E-04  0.307E-03    0.00       2.7  T
  19   -272.2529046 -0.339866E-05  0.201E-03    0.00       4.1  T
  20   -272.2529065 -0.193477E-05  0.126E-03    0.00       6.5  T
  21   -272.2529072 -0.718028E-06  0.693E-04    0.00      11.9  T
  22   -272.2529075 -0.230008E-06  0.442E-04    0.00      18.6  T
     SCC iter.                  ...        0 min,  1.128 sec
     gradient                   ...        0 min,  0.223 sec
 * total energy  :  -267.9016724 Eh     change       -0.1672723E-01 Eh
   gradient norm :     0.0361933 Eh/α   predicted    -0.1929602E-01 (  15.36%)
   displ. norm   :     0.8779952 α      lambda       -0.1759215E-01
   maximum displ.:     0.5020174 α      in ANC's #20, #13, #18, ...

........................................................................
.............................. CYCLE   18 ..............................
........................................................................
   1   -272.2671754 -0.272267E+03  0.176E-01    0.01       0.0  T
   2   -271.7057500  0.561425E+00  0.963E-01    0.27       1.0  T
   3   -271.9125108 -0.206761E+00  0.777E-01    0.17       1.0  T
   4   -272.1870244 -0.274514E+00  0.369E-01    0.01       1.0  T
   5   -271.7738227  0.413202E+00  0.838E-01    0.16       1.0  T
   6   -271.9784769 -0.204654E+00  0.673E-01    0.10       1.0  T
   7   -272.2235536 -0.245077E+00  0.279E-01    0.02       1.0  T
   8   -272.2195734  0.398013E-02  0.286E-01    0.01       1.0  T
   9   -272.2573488 -0.377754E-01  0.157E-01    0.02       1.0  T
  10   -272.2741109 -0.167621E-01  0.561E-02    0.00       1.0  T
  11   -272.2705728  0.353814E-02  0.872E-02    0.01       1.0  T
  12   -272.2749473 -0.437452E-02  0.340E-02    0.00       1.0  T
  13   -272.2751687 -0.221351E-03  0.291E-02    0.01       1.0  T
  14   -272.2750472  0.121473E-03  0.336E-02    0.00       1.0  T
  15   -272.2756247 -0.577539E-03  0.142E-02    0.00       1.0  T
  16   -272.2757298 -0.105033E-03  0.720E-03    0.00       1.1  T
  17   -272.2757524 -0.226433E-04  0.407E-03    0.00       2.0  T
  18   -272.2757594 -0.695438E-05  0.249E-03    0.00       3.3  T
  19   -272.2757632 -0.384962E-05  0.386E-04    0.00      21.3  T
  20   -272.2757628  0.393938E-06  0.868E-04    0.00       9.5  T
  21   -272.2757630 -0.212725E-06  0.577E-04    0.00      14.2  T
     SCC iter.                  ...        0 min,  1.076 sec
     gradient                   ...        0 min,  0.223 sec
 * total energy  :  -267.9172469 Eh     change       -0.1557441E-01 Eh
   gradient norm :     0.0355517 Eh/α   predicted    -0.1557678E-01 (   0.02%)
   displ. norm   :     0.9144623 α      lambda       -0.1681686E-01
   maximum displ.:     0.5103368 α      in ANC's #20, #13, #18, ...

........................................................................
.............................. CYCLE   19 ..............................
........................................................................
   1   -272.2808267 -0.272281E+03  0.206E-01    0.01       0.0  T
   2   -271.3683629  0.912464E+00  0.104E+00    0.09       1.0  T
   3   -271.8768275 -0.508465E+00  0.804E-01    0.13       1.0  T
   4   -272.0451336 -0.168306E+00  0.605E-01    0.05       1.0  T
   5   -272.1023112 -0.571776E-01  0.551E-01    0.02       1.0  T
   6   -272.0694161  0.328951E-01  0.618E-01    0.08       1.0  T
   7   -272.1947849 -0.125369E+00  0.394E-01    0.04       1.0  T
   8   -272.2161828 -0.213979E-01  0.343E-01    0.01       1.0  T
   9   -272.2725458 -0.563629E-01  0.187E-01    0.02       1.0  T
  10   -272.2902191 -0.176734E-01  0.769E-02    0.01       1.0  T
  11   -272.2919755 -0.175638E-02  0.528E-02    0.00       1.0  T
  12   -272.2805464  0.114291E-01  0.137E-01    0.01       1.0  T
  13   -272.2910585 -0.105120E-01  0.577E-02    0.01       1.0  T
  14   -272.2933459 -0.228742E-02  0.100E-02    0.00       1.0  T
  15   -272.2933487 -0.283418E-05  0.929E-03    0.00       1.0  T
  16   -272.2933947 -0.460032E-04  0.474E-03    0.00       1.7  T
  17   -272.2933984 -0.364675E-05  0.416E-03    0.00       2.0  T
  18   -272.2934008 -0.240604E-05  0.318E-03    0.00       2.6  T
  19   -272.2934070 -0.621286E-05  0.158E-03    0.00       5.2  T
  20   -272.2934071 -0.129438E-06  0.146E-03    0.00       5.6  T
  21   -272.2934079 -0.805492E-06  0.916E-04    0.00       9.0  T
  22   -272.2934076  0.310726E-06  0.116E-03    0.00       7.1  T
  23   -272.2934081 -0.540596E-06  0.662E-04    0.00      12.4  T
     SCC iter.                  ...        0 min,  1.179 sec
     gradient                   ...        0 min,  0.223 sec
 * total energy  :  -267.9317604 Eh     change       -0.1451359E-01 Eh
   gradient norm :     0.0341024 Eh/α   predicted    -0.1543992E-01 (   6.38%)
   displ. norm   :     0.9052464 α      lambda       -0.1623609E-01
   maximum displ.:     0.4922317 α      in ANC's #20, #13, #18, ...

........................................................................
.............................. CYCLE   20 ..............................
........................................................................
   1   -272.3181962 -0.272318E+03  0.188E-01    0.00       0.0  T
   2   -271.7597335  0.558463E+00  0.958E-01    0.28       1.0  T
   3   -272.0207970 -0.261063E+00  0.638E-01    0.08       1.0  T
   4   -272.0767948 -0.559978E-01  0.578E-01    0.09       1.0  T
   5   -272.1267855 -0.499907E-01  0.553E-01    0.05       1.0  T
   6   -272.1020776  0.247079E-01  0.612E-01    0.05       1.0  T
   7   -272.2678479 -0.165770E+00  0.281E-01    0.03       1.0  T
   8   -272.2917277 -0.238798E-01  0.223E-01    0.00       1.0  T
   9   -272.3229765 -0.312488E-01  0.536E-02    0.01       1.0  T
  10   -272.3123435  0.106330E-01  0.138E-01    0.00       1.0  T
  11   -272.3218397 -0.949623E-02  0.641E-02    0.01       1.0  T
  12   -272.3218587 -0.189233E-04  0.633E-02    0.01       1.0  T
  13   -272.3247386 -0.287989E-02  0.109E-02    0.00       1.0  T
  14   -272.3247326  0.599572E-05  0.114E-02    0.00       1.0  T
  15   -272.3247740 -0.414199E-04  0.811E-03    0.00       1.0  T
  16   -272.3247860 -0.120651E-04  0.639E-03    0.00       1.3  T
  17   -272.3248144 -0.283887E-04  0.204E-03    0.00       4.0  T
  18   -272.3248165 -0.208645E-05  0.100E-03    0.00       8.2  T
  19   -272.3248168 -0.291588E-06  0.786E-04    0.00      10.5  T
  20   -272.3248167  0.775768E-07  0.831E-04    0.00       9.9  T
     SCC iter.                  ...        0 min,  1.027 sec
     gradient                   ...        0 min,  0.224 sec
 * total energy  :  -267.9458031 Eh     change       -0.1404268E-01 Eh
   gradient norm :     0.0276205 Eh/α   predicted    -0.1477053E-01 (   5.18%)
   displ. norm   :     0.9155742 α      lambda       -0.1454997E-01
   maximum displ.:     0.5071720 α      in ANC's #20, #13, #18, ...
 * RMSD in coord.:     1.0646636 α      energy gain  -0.9685807E+00 Eh

generating ANC from model Hessian ...
Using Lindh-Hessian (1995)
 Shifting diagonal of input Hessian by    1.0005242797963986E-002
 Lowest  eigenvalues of input Hessian
    0.010000    0.010001    0.010002    0.010003    0.000000    0.000000
    0.000000    0.000000    0.000000    0.000000    0.010006    0.010009
    0.010011    0.010014    0.010048    0.010214    0.010408    0.010558
 Highest eigenvalues
    2.124935    2.130975    2.133114    2.517851    2.533902    2.543581


........................................................................
.............................. CYCLE   21 ..............................
........................................................................
   1   -272.3490333 -0.272349E+03  0.163E-01    0.01       0.0  T
   2   -271.8296440  0.519389E+00  0.859E-01    0.15       1.0  T
   3   -272.1432894 -0.313645E+00  0.572E-01    0.03       1.0  T
   4   -272.1516969 -0.840756E-02  0.549E-01    0.05       1.0  T
   5   -271.9243329  0.227364E+00  0.849E-01    0.21       1.0  T
   6   -272.1736660 -0.249333E+00  0.489E-01    0.03       1.0  T
   7   -272.2972436 -0.123578E+00  0.279E-01    0.01       1.0  T
   8   -272.3077793 -0.105357E-01  0.243E-01    0.03       1.0  T
   9   -272.3487795 -0.410003E-01  0.711E-02    0.01       1.0  T
  10   -272.3508542 -0.207466E-02  0.399E-02    0.00       1.0  T
  11   -272.3510589 -0.204652E-03  0.368E-02    0.00       1.0  T
  12   -272.3477696  0.328926E-02  0.757E-02    0.01       1.0  T
  13   -272.3513295 -0.355991E-02  0.316E-02    0.00       1.0  T
  14   -272.3519553 -0.625759E-03  0.653E-03    0.00       1.3  T
  15   -272.3518538  0.101423E-03  0.131E-02    0.00       1.0  T
  16   -272.3519702 -0.116362E-03  0.375E-03    0.00       2.2  T
  17   -272.3519440  0.262095E-04  0.690E-03    0.00       1.2  T
  18   -272.3519763 -0.322867E-04  0.200E-03    0.00       4.1  T
  19   -272.3519781 -0.179278E-05  0.127E-03    0.00       6.5  T
  20   -272.3519788 -0.751200E-06  0.764E-04    0.00      10.8  T
  21   -272.3519791 -0.289306E-06  0.375E-04    0.00      21.9  T
     SCC iter.                  ...        0 min,  1.076 sec
     gradient                   ...        0 min,  0.224 sec
 * total energy  :  -267.9588081 Eh     change       -0.1300495E-01 Eh
   gradient norm :     0.0249706 Eh/α   predicted     0.0000000E+00 (-100.00%)
   displ. norm   :     0.6500731 α      lambda       -0.9523384E-02
   maximum displ.:     0.3946645 α      in ANC's #18, #20, #14, ...

........................................................................
.............................. CYCLE   22 ..............................
........................................................................
   1   -272.3697666 -0.272370E+03  0.960E-02    0.00       0.0  T
   2   -272.0988035  0.270963E+00  0.606E-01    0.06       1.0  T
   3   -272.3067589 -0.207955E+00  0.307E-01    0.01       1.0  T
   4   -272.1620780  0.144681E+00  0.566E-01    0.05       1.0  T
   5   -272.0511739  0.110904E+00  0.735E-01    0.08       1.0  T
   6   -272.3093113 -0.258137E+00  0.286E-01    0.02       1.0  T
   7   -272.3645084 -0.551971E-01  0.981E-02    0.01       1.0  T
   8   -272.3656773 -0.116894E-02  0.819E-02    0.01       1.0  T
   9   -272.3660130 -0.335695E-03  0.785E-02    0.01       1.0  T
  10   -272.3696377 -0.362466E-02  0.306E-02    0.00       1.0  T
  11   -272.3690605  0.577209E-03  0.438E-02    0.00       1.0  T
  12   -272.3697189 -0.658449E-03  0.255E-02    0.00       1.0  T
  13   -272.3697898 -0.708508E-04  0.237E-02    0.00       1.0  T
  14   -272.3701073 -0.317507E-03  0.113E-02    0.00       1.0  T
  15   -272.3701830 -0.756930E-04  0.247E-03    0.00       3.3  T
  16   -272.3701866 -0.365185E-05  0.103E-03    0.00       8.0  T
  17   -272.3701868 -0.148507E-06  0.855E-04    0.00       9.6  T
  18   -272.3701871 -0.301195E-06  0.590E-04    0.00      13.9  T
     SCC iter.                  ...        0 min,  0.924 sec
     gradient                   ...        0 min,  0.224 sec
 * total energy  :  -267.9679236 Eh     change       -0.9115570E-02 Eh
   gradient norm :     0.0169374 Eh/α   predicted    -0.6773972E-02 ( -25.69%)
   displ. norm   :     0.8920044 α      lambda       -0.1206819E-01
   maximum displ.:     0.5346306 α      in ANC's #20, #18, #14, ...

........................................................................
.............................. CYCLE   23 ..............................
........................................................................
   1   -272.3877132 -0.272388E+03  0.138E-01    0.01       0.0  T
   2   -272.1148376  0.272876E+00  0.655E-01    0.02       1.0  T
   3   -272.2183794 -0.103542E+00  0.541E-01    0.07       1.0  T
   4   -272.2693168 -0.509374E-01  0.425E-01    0.04       1.0  T
   5   -271.9345412  0.334776E+00  0.796E-01    0.10       1.0  T
   6   -272.3215035 -0.386962E+00  0.306E-01    0.03       1.0  T
   7   -272.3895463 -0.680428E-01  0.303E-02    0.00       1.0  T
   8   -272.3871503  0.239597E-02  0.635E-02    0.01       1.0  T
   9   -272.3731234  0.140269E-01  0.149E-01    0.02       1.0  T
  10   -272.3840007 -0.108773E-01  0.896E-02    0.02       1.0  T
  11   -272.3885249 -0.452419E-02  0.443E-02    0.01       1.0  T
  12   -272.3835649  0.495994E-02  0.979E-02    0.01       1.0  T
  13   -272.3873591 -0.379414E-02  0.587E-02    0.01       1.0  T
  14   -272.3899494 -0.259030E-02  0.414E-03    0.00       2.0  T
  15   -272.3898946  0.547402E-04  0.932E-03    0.00       1.0  T
  16   -272.3898957 -0.104586E-05  0.925E-03    0.00       1.0  T
  17   -272.3899530 -0.573402E-04  0.304E-03    0.00       2.7  T
  18   -272.3899596 -0.654394E-05  0.660E-04    0.00      12.4  T
  19   -272.3899597 -0.996955E-07  0.546E-04    0.00      15.1  T
  20   -272.3899599 -0.199743E-06  0.105E-04    0.00      78.6  T
     SCC iter.                  ...        0 min,  1.025 sec
     gradient                   ...        0 min,  0.224 sec
 * total energy  :  -267.9794397 Eh     change       -0.1151606E-01 Eh
   gradient norm :     0.0142042 Eh/α   predicted    -0.1083525E-01 (  -5.91%)
   displ. norm   :     0.9315521 α      lambda       -0.1160781E-01
   maximum displ.:     0.5615388 α      in ANC's #20, #18, #14, ...

........................................................................
.............................. CYCLE   24 ..............................
........................................................................
   1   -272.4063149 -0.272406E+03  0.142E-01    0.01       0.0  T
   2   -272.0661681  0.340147E+00  0.738E-01    0.08       1.0  T
   3   -272.1949831 -0.128815E+00  0.542E-01    0.02       1.0  T
   4   -272.2004653 -0.548220E-02  0.528E-01    0.05       1.0  T
   5   -272.1047805  0.956848E-01  0.741E-01    0.07       1.0  T
   6   -272.3308227 -0.226042E+00  0.336E-01    0.02       1.0  T
   7   -272.3540161 -0.231934E-01  0.289E-01    0.02       1.0  T
   8   -272.4076263 -0.536102E-01  0.395E-02    0.00       1.0  T
   9   -272.4037978  0.382845E-02  0.839E-02    0.01       1.0  T
  10   -272.4009512  0.284662E-02  0.985E-02    0.01       1.0  T
  11   -272.4025276 -0.157639E-02  0.933E-02    0.00       1.0  T
  12   -272.3928751  0.965251E-02  0.144E-01    0.02       1.0  T
  13   -272.4062787 -0.134036E-01  0.542E-02    0.01       1.0  T
  14   -272.4080675 -0.178882E-02  0.211E-02    0.00       1.0  T
  15   -272.4083370 -0.269443E-03  0.505E-03    0.00       1.6  T
  16   -272.4083109  0.260694E-04  0.792E-03    0.00       1.0  T
  17   -272.4083373 -0.264186E-04  0.506E-03    0.00       1.6  T
  18   -272.4083556 -0.183167E-04  0.520E-04    0.00      15.8  T
  19   -272.4083554  0.260018E-06  0.797E-04    0.00      10.3  T
  20   -272.4083555 -0.166207E-06  0.603E-04    0.00      13.6  T
     SCC iter.                  ...        0 min,  1.026 sec
     gradient                   ...        0 min,  0.224 sec
 * total energy  :  -267.9905673 Eh     change       -0.1112761E-01 Eh
   gradient norm :     0.0163227 Eh/α   predicted    -0.1084047E-01 (  -2.58%)
   displ. norm   :     0.9429415 α      lambda       -0.1103578E-01
   maximum displ.:     0.5723644 α      in ANC's #20, #18, #14, ...

........................................................................
.............................. CYCLE   25 ..............................
........................................................................
   1   -272.4265031 -0.272427E+03  0.139E-01    0.00       0.0  T
   2   -272.0027984  0.423705E+00  0.823E-01    0.13       1.0  T
   3   -272.2586869 -0.255888E+00  0.487E-01    0.04       1.0  T
   4   -272.1238688  0.134818E+00  0.645E-01    0.08       1.0  T
   5   -272.4121568 -0.288288E+00  0.175E-01    0.00       1.0  T
   6   -272.1286968  0.283460E+00  0.712E-01    0.10       1.0  T
   7   -272.4194757 -0.290779E+00  0.118E-01    0.00       1.0  T
   8   -272.4216981 -0.222239E-02  0.968E-02    0.01       1.0  T
   9   -272.4197440  0.195408E-02  0.112E-01    0.01       1.0  T
  10   -272.4277266 -0.798258E-02  0.206E-02    0.00       1.0  T
  11   -272.4246835  0.304306E-02  0.685E-02    0.01       1.0  T
  12   -272.4276600 -0.297650E-02  0.200E-02    0.00       1.0  T
  13   -272.4279091 -0.249107E-03  0.935E-03    0.00       1.0  T
  14   -272.4278987  0.104018E-04  0.958E-03    0.00       1.0  T
  15   -272.4279543 -0.555860E-04  0.393E-03    0.00       2.1  T
  16   -272.4279590 -0.466613E-05  0.259E-03    0.00       3.2  T
  17   -272.4279619 -0.289724E-05  0.154E-03    0.00       5.3  T
  18   -272.4279630 -0.119187E-05  0.623E-04    0.00      13.2  T
  19   -272.4279630  0.761459E-07  0.693E-04    0.00      11.9  T
  20   -272.4279632 -0.257595E-06  0.299E-04    0.00      27.5  T
     SCC iter.                  ...        0 min,  1.025 sec
     gradient                   ...        0 min,  0.225 sec
 * total energy  :  -268.0011172 Eh     change       -0.1054987E-01 Eh
   gradient norm :     0.0152780 Eh/α   predicted    -0.1042406E-01 (  -1.19%)
   displ. norm   :     0.9493604 α      lambda       -0.1044652E-01
   maximum displ.:     0.5803356 α      in ANC's #20, #18, #14, ...

........................................................................
.............................. CYCLE   26 ..............................
........................................................................
   1   -272.4467552 -0.272447E+03  0.139E-01    0.00       0.0  T
   2   -271.9894895  0.457266E+00  0.863E-01    0.16       1.0  T
   3   -272.3816485 -0.392159E+00  0.320E-01    0.02       1.0  T
   4   -272.0153656  0.366283E+00  0.780E-01    0.14       1.0  T
   5   -271.9909123  0.244533E-01  0.887E-01    0.23       1.0  T
   6   -272.4149009 -0.423989E+00  0.217E-01    0.02       1.0  T
   7   -272.4323824 -0.174815E-01  0.159E-01    0.01       1.0  T
   8   -272.4403094 -0.792696E-02  0.108E-01    0.01       1.0  T
   9   -272.4340137  0.629563E-02  0.150E-01    0.01       1.0  T
  10   -272.4475840 -0.135702E-01  0.368E-02    0.00       1.0  T
  11   -272.4458742  0.170973E-02  0.623E-02    0.00       1.0  T
  12   -272.4478275 -0.195324E-02  0.284E-02    0.00       1.0  T
  13   -272.4483441 -0.516592E-03  0.822E-03    0.00       1.0  T
  14   -272.4483395  0.457980E-05  0.857E-03    0.00       1.0  T
  15   -272.4483728 -0.333208E-04  0.439E-03    0.00       1.9  T
  16   -272.4483796 -0.676931E-05  0.312E-03    0.00       2.6  T
  17   -272.4483856 -0.602110E-05  0.621E-04    0.00      13.2  T
  18   -272.4483854  0.179077E-06  0.808E-04    0.00      10.2  T
  19   -272.4483859 -0.436350E-06  0.175E-04    0.00      47.1  T
     SCC iter.                  ...        0 min,  0.974 sec
     gradient                   ...        0 min,  0.225 sec
 * total energy  :  -268.0110419 Eh     change       -0.9924729E-02 Eh
   gradient norm :     0.0122935 Eh/α   predicted    -0.9930989E-02 (   0.06%)
   displ. norm   :     0.9533500 α      lambda       -0.9746636E-02
   maximum displ.:     0.5853719 α      in ANC's #20, #18, #14, ...

........................................................................
.............................. CYCLE   27 ..............................
........................................................................
   1   -272.4659119 -0.272466E+03  0.140E-01    0.00       0.0  T
   2   -271.9873824  0.478530E+00  0.891E-01    0.18       1.0  T
   3   -272.4208556 -0.433473E+00  0.276E-01    0.02       1.0  T
   4   -272.0628597  0.357996E+00  0.760E-01    0.11       1.0  T
   5   -271.9961750  0.666847E-01  0.907E-01    0.21       1.0  T
   6   -272.4308719 -0.434697E+00  0.243E-01    0.01       1.0  T
   7   -272.4492178 -0.183458E-01  0.174E-01    0.02       1.0  T
   8   -272.4582771 -0.905930E-02  0.121E-01    0.00       1.0  T
   9   -272.4617770 -0.349995E-02  0.994E-02    0.01       1.0  T
  10   -272.4667041 -0.492711E-02  0.459E-02    0.00       1.0  T
  11   -272.4666681  0.360320E-04  0.469E-02    0.00       1.0  T
  12   -272.4674271 -0.758980E-03  0.324E-02    0.00       1.0  T
  13   -272.4680920 -0.664880E-03  0.674E-03    0.00       1.2  T
  14   -272.4680601  0.318512E-04  0.964E-03    0.00       1.0  T
  15   -272.4681096 -0.494497E-04  0.433E-03    0.00       1.9  T
  16   -272.4681191 -0.954252E-05  0.176E-03    0.00       4.7  T
  17   -272.4681187  0.423226E-06  0.188E-03    0.00       4.4  T
  18   -272.4681210 -0.230851E-05  0.461E-04    0.00      17.8  T
  19   -272.4681211 -0.825590E-07  0.263E-04    0.00      31.2  T
  20   -272.4681211 -0.314992E-07  0.141E-04    0.00      58.3  T
     SCC iter.                  ...        0 min,  1.024 sec
     gradient                   ...        0 min,  0.226 sec
 * total energy  :  -268.0202668 Eh     change       -0.9224897E-02 Eh
   gradient norm :     0.0107811 Eh/α   predicted    -0.9302565E-02 (   0.84%)
   displ. norm   :     0.9530243 α      lambda       -0.9017750E-02
   maximum displ.:     0.5890782 α      in ANC's #20, #18, #14, ...

........................................................................
.............................. CYCLE   28 ..............................
........................................................................
   1   -272.4835451 -0.272484E+03  0.141E-01    0.00       0.0  T
   2   -271.9890749  0.494470E+00  0.912E-01    0.22       1.0  T
   3   -272.4656715 -0.476597E+00  0.186E-01    0.01       1.0  T
   4   -271.9678382  0.497833E+00  0.857E-01    0.19       1.0  T
   5   -272.1986004 -0.230762E+00  0.707E-01    0.08       1.0  T
   6   -272.3122404 -0.113640E+00  0.494E-01    0.01       1.0  T
   7   -272.4598517 -0.147611E+00  0.206E-01    0.02       1.0  T
   8   -272.4841257 -0.242740E-01  0.588E-02    0.00       1.0  T
   9   -272.4826871  0.143867E-02  0.785E-02    0.01       1.0  T
  10   -272.4838869 -0.119987E-02  0.580E-02    0.00       1.0  T
  11   -272.4828950  0.991969E-03  0.714E-02    0.01       1.0  T
  12   -272.4848378 -0.194279E-02  0.451E-02    0.01       1.0  T
  13   -272.4860865 -0.124874E-02  0.206E-02    0.00       1.0  T
  14   -272.4861846 -0.980774E-04  0.160E-02    0.00       1.0  T
  15   -272.4863244 -0.139867E-03  0.640E-03    0.00       1.3  T
  16   -272.4863525 -0.280363E-04  0.113E-03    0.00       7.3  T
  17   -272.4863480  0.451154E-05  0.282E-03    0.00       2.9  T
  18   -272.4863529 -0.496283E-05  0.673E-04    0.00      12.2  T
  19   -272.4863530 -0.101661E-06  0.501E-04    0.00      16.4  T
  20   -272.4863531 -0.688090E-07  0.404E-04    0.00      20.3  T
     SCC iter.                  ...        0 min,  1.025 sec
     gradient                   ...        0 min,  0.226 sec
 * total energy  :  -268.0287779 Eh     change       -0.8511122E-02 Eh
   gradient norm :     0.0104861 Eh/α   predicted    -0.8604092E-02 (   1.09%)
   displ. norm   :     0.9511258 α      lambda       -0.8268997E-02
   maximum displ.:     0.5897974 α      in ANC's #20, #18, #14, ...

........................................................................
.............................. CYCLE   29 ..............................
........................................................................
   1   -272.5001557 -0.272500E+03  0.138E-01    0.00       0.0  T
   2   -271.9944187  0.505737E+00  0.927E-01    0.25       1.0  T
   3   -272.4834336 -0.489015E+00  0.186E-01    0.01       1.0  T
   4   -271.9815469  0.501887E+00  0.859E-01    0.17       1.0  T
   5   -272.1766487 -0.195102E+00  0.749E-01    0.08       1.0  T
   6   -272.2212015 -0.445528E-01  0.664E-01    0.05       1.0  T
   7   -272.4676530 -0.246451E+00  0.225E-01    0.01       1.0  T
   8   -272.4931633 -0.255103E-01  0.123E-01    0.01       1.0  T
   9   -272.4979425 -0.477916E-02  0.921E-02    0.01       1.0  T
  10   -272.4949320  0.301043E-02  0.116E-01    0.01       1.0  T
  11   -272.5006425 -0.571047E-02  0.679E-02    0.01       1.0  T
  12   -272.5015438 -0.901272E-03  0.532E-02    0.01       1.0  T
  13   -272.5034747 -0.193091E-02  0.115E-02    0.00       1.0  T
  14   -272.5034504  0.243166E-04  0.133E-02    0.00       1.0  T
  15   -272.5035193 -0.689209E-04  0.746E-03    0.00       1.1  T
[...]
  25:  2.12  26:  2.64  27:  2.63  28:  1.32  29: 65.50  30:  2.45  31:  3.21  32: 12.57
  33: 14.55  34:  3.71  35:  1.16  36: 87.22  37:  4.86  38:******  39: 75.42  40:******
  41:  1.02  42: 36.40  43: 27.94  44: 20.47  45:  0.34  46:266.04  47:  3.30  48: 19.25
  49:  1.05  50:176.57  51: 31.81  52:******  53:483.62  54: 18.31  55:110.63  56: 22.42
  57: 50.19  58: 38.36  59: 18.82  60: 13.77  61: 35.86  62: 98.36  63:158.71  64:******
  65: 12.24  66:101.05  67:  8.65  68: 93.52  69: 25.19  70: 67.95  71: 28.97  72:  3.81
  73:  5.83  74:  2.62  75: 10.49  76: 40.04  77: 50.06  78:  9.18  79:  8.92  80: 96.95
  81:112.34  82: 25.79  83: 14.89  84: 44.05  85: 11.94  86:  6.00  87:******  88: 84.42
  89:101.70  90:******  91:******  92:754.92  93:954.79  94:554.60  95: 23.31  96:  6.70
  97:  1.55  98:  7.18  99: 17.88 100: 56.99 101: 61.43 102:  1.81 103: 66.94 104: 21.04
 105:  8.36 106:298.20 107:265.43 108:  2.13 109: 26.66 110:  0.05 111:369.70 112:133.82
 113:  2.26 114:  3.70 115:370.94 116:  4.73 117:  0.29 118: 96.83 119: 32.12 120:  6.39
 121:978.79 122: 71.38 123: 18.63 124: 26.49 125:  0.03 126:  1.55 127: 90.47 128:  1.46
 129:  2.50 130:  0.83 131:  3.18 132:  5.03 133:  3.31 134:  9.14 135:  3.15 136:  1.49
 137:****** 138: 11.65 139: 91.59 140: 31.56 141:142.51 142:****** 143: 45.62 144:  0.40
 145:190.19 146:700.14 147: 43.92 148: 98.43 149:  0.34 150:  6.52 151:  3.01 152:139.65
 153: 25.59 154: 37.26 155:  0.48 156:  9.19 157:  3.87 158:361.92 159:  0.16 160: 34.12
 161:  7.57 162:  2.81 163: 12.72 164:218.32 165: 11.98 166:  1.06 167:  3.73 168:  3.78
 169:  5.97 170:  0.92 171:  0.94 172:****** 173:  3.58 174:  9.25 175:136.90 176:  2.67
 177: 10.17 178: 16.31 179: 13.25 180:  9.21 181: 23.41 182:  2.58 183:****** 184: 94.98
 185: 13.37 186: 18.95 187:310.49 188:  2.35 189:  4.89 190:  1.09 191: 42.05 192:  1.40
 193:  2.36 194:  1.89 195: 23.94 196: 16.28 197:  1.45 198: 19.51 199: 31.02 200: 20.64
 201:  2.50 202: 20.30 203:  8.89 204: 48.11 205:  6.08 206:  4.51 207:  3.21 208:  0.48
 209:  1.41 210:  1.03 211:  2.41 212: 55.85 213:  8.33 214: 13.31 215:  7.99 216:415.42
 217: 12.89 218:164.38 219:469.78 220: 27.63 221:  0.38 222: 51.23 223: 18.84 224: 10.85
 225:  1.76 226: 51.51 227: 21.62 228:  5.43 229: 29.65 230:171.22 231: 30.08 232:  1.00
 233:  4.84 234: 33.66 235: 24.10 236:  7.82 237:  2.34 238:  0.85 239:  7.69 240: 29.54
 241:****** 242: 24.07 243: 48.51 244: 23.63 245:366.22 246:****** 247:930.73 248: 35.14
 249:410.68 250: 26.86 251:106.09 252:  8.78 253: 52.21 254:  0.82 255:292.58 256: 24.03
 257: 66.36 258:109.99 259: 52.00 260:  0.80 261: 47.85 262:****** 263: 82.72 264:568.34
 265:189.40 266: 16.43 267: 46.21 268: 26.63 269: 60.69 270:  7.98 271: 35.17 272:******
 273:  3.38 274: 21.49 275:  1.41 276:  0.65 277:152.23 278: 24.05 279: 38.93 280: 40.50
 281:123.92 282:158.83 283: 22.18 284: 36.35 285: 43.58 286:****** 287: 44.72 288: 25.89
 289:188.52 290: 27.78 291:224.71 292:306.93 293:143.21 294: 15.47 295:236.90 296:399.24
 297:  4.68 298:879.44 299:  0.67 300: 19.26 301: 29.77 302:  0.22 303:****** 304: 27.83
 305:  2.68 306:  5.46 307:  7.38 308:210.47 309: 14.84 310:  2.22 311:****** 312:  0.99
 313:  1.31 314:  5.62 315: 16.78 316:144.65 317: 14.13 318: 90.94 319:  0.48 320:  6.11
 321:192.90 322:  8.61 323: 77.15 324:  0.33 325:  2.77 326:  6.31 327:  1.60 328: 26.40
 329: 19.02 330:474.06 331: 56.44 332: 11.95 333:****** 334:  0.63 335:****** 336: 35.46
 337:  7.13 338:172.77 339:  0.74 340:  0.15 341:  0.03 342:  2.04 343:****** 344: 19.19
 345:376.08 346:198.34 347:  4.12 348:149.92 349:  2.33 350:141.60 351:****** 352:  3.03
 353:  4.55 354:  2.46 355: 38.25 356: 50.07 357:  4.29 358: 12.50 359:937.59 360:  2.69
 361:494.72 362:256.05 363:438.65 364:  9.98 365:****** 366: 55.04 367:  0.11 368:  1.84
 369:  2.91 370:  0.51 371:  3.56 372:  0.52 373:  0.90 374: 17.14 375:  0.46 376: 31.00
 377: 27.24 378: 28.35 379:320.59 380:131.78 381:911.16 382: 15.42 383: 54.14 384:  1.55
 385: 21.16 386:  1.06 387:****** 388:****** 389:  6.15 390:  0.03 391:  1.11 392:******
 393:280.80 394:****** 395: 13.08 396:  1.03 397:  0.74 398:  1.32 399:  2.24 400: 21.91
 401:****** 402:****** 403: 40.70 404:****** 405:500.75 406: 97.33 407:****** 408:******
 409:****** 410:****** 411:****** 412:****** 413:  9.28 414:  9.69 415: 10.34 416:  7.59
 417:103.99 418: 26.29 419:****** 420:575.12 421:180.01 422:811.62 423: 31.06 424:******
 425:370.18 426: 92.72 427:****** 428: 78.18 429: 58.87 430: 69.71 431:****** 432:******
 433:220.58 434:****** 435: 73.50 436:854.73 437:220.96 438:****** 439:  5.03 440:******
 441: 89.83 442:695.45 443:****** 444:986.20
 Raman intensities (amu)
   1:  0.00   2:  0.00   3:  0.00   4:  0.00   5:  0.00   6:  0.00   7:  0.00   8:  0.00
   9:  0.00  10:  0.00  11:  0.00  12:  0.00  13:  0.00  14:  0.00  15:  0.00  16:  0.00
  17:  0.00  18:  0.00  19:  0.00  20:  0.00  21:  0.00  22:  0.00  23:  0.00  24:  0.00
  25:  0.00  26:  0.00  27:  0.00  28:  0.00  29:  0.00  30:  0.00  31:  0.00  32:  0.00
  33:  0.00  34:  0.00  35:  0.00  36:  0.00  37:  0.00  38:  0.00  39:  0.00  40:  0.00
  41:  0.00  42:  0.00  43:  0.00  44:  0.00  45:  0.00  46:  0.00  47:  0.00  48:  0.00
  49:  0.00  50:  0.00  51:  0.00  52:  0.00  53:  0.00  54:  0.00  55:  0.00  56:  0.00
  57:  0.00  58:  0.00  59:  0.00  60:  0.00  61:  0.00  62:  0.00  63:  0.00  64:  0.00
  65:  0.00  66:  0.00  67:  0.00  68:  0.00  69:  0.00  70:  0.00  71:  0.00  72:  0.00
  73:  0.00  74:  0.00  75:  0.00  76:  0.00  77:  0.00  78:  0.00  79:  0.00  80:  0.00
  81:  0.00  82:  0.00  83:  0.00  84:  0.00  85:  0.00  86:  0.00  87:  0.00  88:  0.00
  89:  0.00  90:  0.00  91:  0.00  92:  0.00  93:  0.00  94:  0.00  95:  0.00  96:  0.00
  97:  0.00  98:  0.00  99:  0.00 100:  0.00 101:  0.00 102:  0.00 103:  0.00 104:  0.00
 105:  0.00 106:  0.00 107:  0.00 108:  0.00 109:  0.00 110:  0.00 111:  0.00 112:  0.00
 113:  0.00 114:  0.00 115:  0.00 116:  0.00 117:  0.00 118:  0.00 119:  0.00 120:  0.00
 121:  0.00 122:  0.00 123:  0.00 124:  0.00 125:  0.00 126:  0.00 127:  0.00 128:  0.00
 129:  0.00 130:  0.00 131:  0.00 132:  0.00 133:  0.00 134:  0.00 135:  0.00 136:  0.00
 137:  0.00 138:  0.00 139:  0.00 140:  0.00 141:  0.00 142:  0.00 143:  0.00 144:  0.00
 145:  0.00 146:  0.00 147:  0.00 148:  0.00 149:  0.00 150:  0.00 151:  0.00 152:  0.00
 153:  0.00 154:  0.00 155:  0.00 156:  0.00 157:  0.00 158:  0.00 159:  0.00 160:  0.00
 161:  0.00 162:  0.00 163:  0.00 164:  0.00 165:  0.00 166:  0.00 167:  0.00 168:  0.00
 169:  0.00 170:  0.00 171:  0.00 172:  0.00 173:  0.00 174:  0.00 175:  0.00 176:  0.00
 177:  0.00 178:  0.00 179:  0.00 180:  0.00 181:  0.00 182:  0.00 183:  0.00 184:  0.00
 185:  0.00 186:  0.00 187:  0.00 188:  0.00 189:  0.00 190:  0.00 191:  0.00 192:  0.00
 193:  0.00 194:  0.00 195:  0.00 196:  0.00 197:  0.00 198:  0.00 199:  0.00 200:  0.00
 201:  0.00 202:  0.00 203:  0.00 204:  0.00 205:  0.00 206:  0.00 207:  0.00 208:  0.00
 209:  0.00 210:  0.00 211:  0.00 212:  0.00 213:  0.00 214:  0.00 215:  0.00 216:  0.00
 217:  0.00 218:  0.00 219:  0.00 220:  0.00 221:  0.00 222:  0.00 223:  0.00 224:  0.00
 225:  0.00 226:  0.00 227:  0.00 228:  0.00 229:  0.00 230:  0.00 231:  0.00 232:  0.00
 233:  0.00 234:  0.00 235:  0.00 236:  0.00 237:  0.00 238:  0.00 239:  0.00 240:  0.00
 241:  0.00 242:  0.00 243:  0.00 244:  0.00 245:  0.00 246:  0.00 247:  0.00 248:  0.00
 249:  0.00 250:  0.00 251:  0.00 252:  0.00 253:  0.00 254:  0.00 255:  0.00 256:  0.00
 257:  0.00 258:  0.00 259:  0.00 260:  0.00 261:  0.00 262:  0.00 263:  0.00 264:  0.00
 265:  0.00 266:  0.00 267:  0.00 268:  0.00 269:  0.00 270:  0.00 271:  0.00 272:  0.00
 273:  0.00 274:  0.00 275:  0.00 276:  0.00 277:  0.00 278:  0.00 279:  0.00 280:  0.00
 281:  0.00 282:  0.00 283:  0.00 284:  0.00 285:  0.00 286:  0.00 287:  0.00 288:  0.00
 289:  0.00 290:  0.00 291:  0.00 292:  0.00 293:  0.00 294:  0.00 295:  0.00 296:  0.00
 297:  0.00 298:  0.00 299:  0.00 300:  0.00 301:  0.00 302:  0.00 303:  0.00 304:  0.00
 305:  0.00 306:  0.00 307:  0.00 308:  0.00 309:  0.00 310:  0.00 311:  0.00 312:  0.00
 313:  0.00 314:  0.00 315:  0.00 316:  0.00 317:  0.00 318:  0.00 319:  0.00 320:  0.00
 321:  0.00 322:  0.00 323:  0.00 324:  0.00 325:  0.00 326:  0.00 327:  0.00 328:  0.00
 329:  0.00 330:  0.00 331:  0.00 332:  0.00 333:  0.00 334:  0.00 335:  0.00 336:  0.00
 337:  0.00 338:  0.00 339:  0.00 340:  0.00 341:  0.00 342:  0.00 343:  0.00 344:  0.00
 345:  0.00 346:  0.00 347:  0.00 348:  0.00 349:  0.00 350:  0.00 351:  0.00 352:  0.00
Refinement of some symmetry elements was terminated before convergence was reached.
Some symmetry elements may remain unidentified.
Molecule has no symmetry elements
It seems to be the C1 point group
 353:  0.00 354:  0.00 355:  0.00 356:  0.00 357:  0.00 358:  0.00 359:  0.00 360:  0.00
 361:  0.00 362:  0.00 363:  0.00 364:  0.00 365:  0.00 366:  0.00 367:  0.00 368:  0.00
 369:  0.00 370:  0.00 371:  0.00 372:  0.00 373:  0.00 374:  0.00 375:  0.00 376:  0.00
 377:  0.00 378:  0.00 379:  0.00 380:  0.00 381:  0.00 382:  0.00 383:  0.00 384:  0.00
 385:  0.00 386:  0.00 387:  0.00 388:  0.00 389:  0.00 390:  0.00 391:  0.00 392:  0.00
 393:  0.00 394:  0.00 395:  0.00 396:  0.00 397:  0.00 398:  0.00 399:  0.00 400:  0.00
 401:  0.00 402:  0.00 403:  0.00 404:  0.00 405:  0.00 406:  0.00 407:  0.00 408:  0.00
 409:  0.00 410:  0.00 411:  0.00 412:  0.00 413:  0.00 414:  0.00 415:  0.00 416:  0.00
 417:  0.00 418:  0.00 419:  0.00 420:  0.00 421:  0.00 422:  0.00 423:  0.00 424:  0.00
 425:  0.00 426:  0.00 427:  0.00 428:  0.00 429:  0.00 430:  0.00 431:  0.00 432:  0.00
 433:  0.00 434:  0.00 435:  0.00 436:  0.00 437:  0.00 438:  0.00 439:  0.00 440:  0.00
 441:  0.00 442:  0.00 443:  0.00 444:  0.00
 output can be read by thermo (or use thermo option).
 writing <g98.out> molden fake output.
 recommended (thermochemical) frequency scaling factor: 1.0
           -------------------------------------------------
          |             Thermodynamic Functions             |
           -------------------------------------------------

c1  symmetry found (for desy threshold:  0.10E+00) used in thermo
 inverting freq            1   7.7633003055954592     
 inverting freq            2   4.5734957199506514     

          ...................................................
          :                      SETUP                      :
          :.................................................:
          :  # frequencies                         438      :
          :  # imaginary freq.                       0      :
          :  linear?                             false      :
          :  only rotor calc.                    false      :
          :  symmetry                               c1      :
          :  rotational number                       1      :
          :  scaling factor                  1.0000000      :
          :  rotor cutoff                   50.0000000 cm⁻¹ :
          :  imag. cutoff                  -20.0000000 cm⁻¹ :
          :.................................................:

    mode    ω/cm⁻¹     T·S(HO)/kcal·mol⁻¹    T·S(FR)/kcal·mol⁻¹   T·S(vib)
   ------------------------------------------------------------------------
       1      7.76    -2.53847 (  0.06%)    -1.60833 ( 99.94%)    -1.60887
       2      4.57    -2.85195 (  0.01%)    -1.76508 ( 99.99%)    -1.76516
       3      1.25    -3.62005 (  0.00%)    -2.14912 (100.00%)    -2.14912
       4      4.07    -2.92115 (  0.00%)    -1.79968 (100.00%)    -1.79973
       5      5.37    -2.75711 (  0.01%)    -1.71766 ( 99.99%)    -1.71780
       6      8.13    -2.51121 (  0.07%)    -1.59470 ( 99.93%)    -1.59534
       7     11.11    -2.32618 (  0.24%)    -1.50217 ( 99.76%)    -1.50417
       8     13.12    -2.22785 (  0.47%)    -1.45299 ( 99.53%)    -1.45664
       9     14.82    -2.15536 (  0.77%)    -1.41673 ( 99.23%)    -1.42239
      10     25.25    -1.84002 (  6.11%)    -1.25895 ( 93.89%)    -1.29443
      11     25.80    -1.82721 (  6.62%)    -1.25253 ( 93.38%)    -1.29059
      12     33.12    -1.67948 ( 16.15%)    -1.17854 ( 83.85%)    -1.25944
      13     34.19    -1.66079 ( 17.94%)    -1.16917 ( 82.06%)    -1.25735
      14     37.56    -1.60524 ( 24.14%)    -1.14133 ( 75.86%)    -1.25334
      15     40.79    -1.55641 ( 30.70%)    -1.11684 ( 69.30%)    -1.25180
      16     40.94    -1.55431 ( 31.00%)    -1.11579 ( 69.00%)    -1.25175
      17     45.19    -1.49595 ( 40.02%)    -1.08651 ( 59.98%)    -1.25038
      18     48.59    -1.45321 ( 47.14%)    -1.06504 ( 52.86%)    -1.24801
      19     51.69    -1.41670 ( 53.32%)    -1.04670 ( 46.68%)    -1.24398
      20     58.58    -1.34302 ( 65.33%)    -1.00964 ( 34.67%)    -1.22742
      21     64.07    -1.29035 ( 72.94%)    -0.98311 ( 27.06%)    -1.20721
      22     69.20    -1.24510 ( 78.58%)    -0.96030 ( 21.42%)    -1.18409
      23     71.87    -1.22283 ( 81.02%)    -0.94905 ( 18.98%)    -1.17088
      24     72.19    -1.22026 ( 81.29%)    -0.94775 ( 18.71%)    -1.16928
      25     75.86    -1.19119 ( 84.12%)    -0.93306 ( 15.88%)    -1.15021
      26     84.18    -1.13031 ( 88.93%)    -0.90224 ( 11.07%)    -1.10506
      27     85.82    -1.11897 ( 89.67%)    -0.89650 ( 10.33%)    -1.09599
      28     92.60    -1.07467 ( 92.16%)    -0.87400 (  7.84%)    -1.05895
      29    103.26    -1.01130 ( 94.79%)    -0.84172 (  5.21%)    -1.00246
      30    105.88    -0.99672 ( 95.26%)    -0.83427 (  4.74%)    -0.98902
      31    113.45    -0.95679 ( 96.36%)    -0.81384 (  3.64%)    -0.95159
      32    116.69    -0.94050 ( 96.74%)    -0.80548 (  3.26%)    -0.93610
      33    120.57    -0.92163 ( 97.13%)    -0.79579 (  2.87%)    -0.91802
      34    122.78    -0.91119 ( 97.32%)    -0.79041 (  2.68%)    -0.90795
      35    123.71    -0.90686 ( 97.40%)    -0.78819 (  2.60%)    -0.90378
      36    125.81    -0.89718 ( 97.57%)    -0.78320 (  2.43%)    -0.89440
      37    130.61    -0.87568 ( 97.90%)    -0.77210 (  2.10%)    -0.87350
      38    134.59    -0.85848 ( 98.13%)    -0.76320 (  1.87%)    -0.85669
      39    145.91    -0.81242 ( 98.64%)    -0.73928 (  1.36%)    -0.81143
      40    164.99    -0.74293 ( 99.16%)    -0.70288 (  0.84%)    -0.74260
      41    165.10    -0.74256 ( 99.17%)    -0.70268 (  0.83%)    -0.74222
      42    166.32    -0.73843 ( 99.19%)    -0.70050 (  0.81%)    -0.73812
      43    167.07    -0.73589 ( 99.20%)    -0.69917 (  0.80%)    -0.73560
      44    177.78    -0.70112 ( 99.38%)    -0.68076 (  0.62%)    -0.70100
      45    179.29    -0.69643 ( 99.40%)    -0.67826 (  0.60%)    -0.69632
      46    181.93    -0.68829 ( 99.43%)    -0.67393 (  0.57%)    -0.68821
      47    183.09    -0.68476 ( 99.45%)    -0.67205 (  0.55%)    -0.68469
      48    183.87    -0.68238 ( 99.46%)    -0.67078 (  0.54%)    -0.68232
      49    184.10    -0.68169 ( 99.46%)    -0.67041 (  0.54%)    -0.68163
      50    185.21    -0.67836 ( 99.47%)    -0.66863 (  0.53%)    -0.67830
      51    191.16    -0.66087 ( 99.53%)    -0.65927 (  0.47%)    -0.66086
      52    204.52    -0.62373 ( 99.64%)    -0.63924 (  0.36%)    -0.62379
      53    204.60    -0.62353 ( 99.64%)    -0.63913 (  0.36%)    -0.62358
      54    205.06    -0.62229 ( 99.65%)    -0.63847 (  0.35%)    -0.62235
      55    205.71    -0.62058 ( 99.65%)    -0.63754 (  0.35%)    -0.62064
      56    206.13    -0.61946 ( 99.65%)    -0.63693 (  0.35%)    -0.61952
      57    209.56    -0.61045 ( 99.68%)    -0.63203 (  0.32%)    -0.61052
      58    209.81    -0.60981 ( 99.68%)    -0.63168 (  0.32%)    -0.60988
      59    210.16    -0.60891 ( 99.68%)    -0.63120 (  0.32%)    -0.60898
      60    211.30    -0.60596 ( 99.69%)    -0.62959 (  0.31%)    -0.60603
      61    211.46    -0.60556 ( 99.69%)    -0.62937 (  0.31%)    -0.60564
      62    217.46    -0.59038 ( 99.72%)    -0.62108 (  0.28%)    -0.59047
      63    217.49    -0.59031 ( 99.72%)    -0.62104 (  0.28%)    -0.59039
      64    218.13    -0.58871 ( 99.72%)    -0.62016 (  0.28%)    -0.58880
      65    218.40    -0.58805 ( 99.73%)    -0.61980 (  0.27%)    -0.58814
      66    219.98    -0.58415 ( 99.73%)    -0.61766 (  0.27%)    -0.58423
      67    220.28    -0.58341 ( 99.74%)    -0.61725 (  0.26%)    -0.58350
      68    232.81    -0.55372 ( 99.79%)    -0.60087 (  0.21%)    -0.55382
      69    240.73    -0.53593 ( 99.81%)    -0.59097 (  0.19%)    -0.53603
      70    244.82    -0.52700 ( 99.83%)    -0.58597 (  0.17%)    -0.52710
      71    258.81    -0.49785 ( 99.86%)    -0.56951 (  0.14%)    -0.49795
      72    259.11    -0.49723 ( 99.86%)    -0.56916 (  0.14%)    -0.49733
      73    259.73    -0.49599 ( 99.86%)    -0.56845 (  0.14%)    -0.49609
      74    261.19    -0.49307 ( 99.87%)    -0.56679 (  0.13%)    -0.49317
      75    262.04    -0.49140 ( 99.87%)    -0.56584 (  0.13%)    -0.49150
      76    262.67    -0.49014 ( 99.87%)    -0.56512 (  0.13%)    -0.49024
      77    275.21    -0.46608 ( 99.89%)    -0.55130 (  0.11%)    -0.46618
   ------------------------------------------------------------------------

   temp. (K)  partition function   enthalpy   heat capacity  entropy
                                   cal/mol     cal/K/mol   cal/K/mol   J/K/mol
 298.15  VIB  0.100E+44            51384.726    332.058    325.890
         ROT  0.156E+10              888.752      2.981     45.051
         INT  0.157E+53            52273.478    335.039    370.941
         TR   0.592E+29             1481.254      4.968     47.873
         TOT                       53754.7318   340.0068   418.8141  1752.3182

       T/K    H(0)-H(T)+PV         H(T)/Eh          T*S/Eh         G(T)/Eh
   ------------------------------------------------------------------------
    298.15    0.856636E-01    0.111314E+01    0.198992E+00    0.914148E+00
   ------------------------------------------------------------------------

         :::::::::::::::::::::::::::::::::::::::::::::::::::::
         ::                  THERMODYNAMIC                  ::
         :::::::::::::::::::::::::::::::::::::::::::::::::::::
         :: total free energy        -267.170753837366 Eh   ::
         ::.................................................::
         :: total energy             -268.084901515551 Eh   ::
         :: zero point energy           1.027476149499 Eh   ::
         :: G(RRHO) w/o ZPVE           -0.113328471313 Eh   ::
         :: G(RRHO) contrib.            0.914147678185 Eh   ::
         :::::::::::::::::::::::::::::::::::::::::::::::::::::
imag cut-off (cm-1) :    5.00
 found            1  significant imaginary frequency
 writing imag mode distorted coords to xtbhess.xyz
 for further optimization.

optimized geometry written to: xtbopt.xyz


           -------------------------------------------------
          | TOTAL ENERGY             -268.084901515551 Eh   |
          | TOTAL ENTHALPY           -266.971761748194 Eh   |
          | TOTAL FREE ENERGY        -267.170753837366 Eh   |
          | GRADIENT NORM               0.000699098875 Eh/α |
          | HOMO-LUMO GAP               0.001042129643 eV   |
           -------------------------------------------------

------------------------------------------------------------------------
 * finished run on 2021/11/19 at 13:01:24.878     
------------------------------------------------------------------------
 total:
 * wall-time:     0 d,  0 h, 15 min, 43.350 sec
 *  cpu-time:     0 d,  0 h, 15 min, 43.338 sec
 * ratio c/w:     1.000 speedup
 SCF:
 * wall-time:     0 d,  0 h,  0 min,  2.811 sec
 *  cpu-time:     0 d,  0 h,  0 min,  2.811 sec
 * ratio c/w:     1.000 speedup
 ANC optimizer:
 * wall-time:     0 d,  0 h,  2 min, 35.920 sec
 *  cpu-time:     0 d,  0 h,  2 min, 35.898 sec
 * ratio c/w:     1.000 speedup
 analytical hessian:
 * wall-time:     0 d,  0 h, 12 min,  8.680 sec
 *  cpu-time:     0 d,  0 h, 12 min,  8.689 sec
 * ratio c/w:     1.000 speedup

