148
 energy: -266.977222095610 gnorm: 0.709271305051 xtb: 6.4.1 (bd6e46d)
Cu       24.39195800000000    0.04122900000000   -0.01254500000000
C        26.72094900000000   -3.10556400000000    1.31014400000000
C        27.63705700000000   -2.16135600000000    1.25986200000000
C        27.22587700000000   -1.10745200000000    0.33857000000000
C        27.84474800000000    0.01689400000000   -0.00784000000000
C        27.14070500000000    1.23684200000000   -0.37194500000000
C        27.46881600000000    2.19689700000000   -1.21941900000000
C        26.43403600000000    3.21318200000000   -1.23631600000000
C        25.49776800000000    2.83672000000000   -0.38942500000000
N        25.89975800000000    1.60370900000000    0.17439200000000
C        24.23669400000000    3.48172000000000   -0.01027300000000
C        23.14147700000000    2.84693700000000    0.34048700000000
C        22.06785100000000    3.16489300000000    1.30951500000000
C        21.23028800000000    2.16813900000000    1.23234900000000
C        21.66858600000000    1.16445600000000    0.25189700000000
N        22.77352400000000    1.60330900000000   -0.23239500000000
C        21.05775100000000   -0.08881500000000   -0.16165100000000
C        21.72191100000000   -1.19332100000000   -0.41607600000000
C        21.34806300000000   -2.25626300000000   -1.37360300000000
C        22.29681000000000   -3.15001900000000   -1.28458400000000
C        23.28253400000000   -2.71256900000000   -0.30170600000000
N        22.92948800000000   -1.56676400000000    0.19509100000000
C        24.51342200000000   -3.36863900000000    0.14401500000000
C        25.63646300000000   -2.72277800000000    0.41113600000000
N        25.96506300000000   -1.47533700000000   -0.18726700000000
H        26.78121100000000   -4.01534400000000    1.92769100000000
H        28.55338400000000   -2.20130600000000    1.83791000000000
H        28.39618100000000    2.21369300000000   -1.82056200000000
H        26.45093500000000    4.11787100000000   -1.84893800000000
H        24.18897100000000    4.57652200000000   -0.01405000000000
H        22.01503000000000    4.04361800000000    1.93450800000000
H        20.31865800000000    2.13246900000000    1.84967300000000
H        19.95950000000000   -0.08590400000000   -0.26092200000000
H        20.47920700000000   -2.30872800000000   -2.02255300000000
H        22.29396400000000   -4.06632700000000   -1.88334300000000
H        24.47794000000000   -4.46444100000000    0.25594000000000
Cu       59.36988200000000   -0.00614700000000   -0.01697800000000
C        57.04089100000000    2.84064500000000    1.86652700000000
C        56.12478400000000    1.92215600000000    1.64195300000000
C        56.53596400000000    1.05745900000000    0.54113900000000
C        55.91709300000000    0.01689400000000   -0.00784000000000
C        56.62113500000000   -1.11433100000000   -0.59194300000000
C        56.29302500000000   -1.90050300000000   -1.60280900000000
C        57.32780400000000   -2.89601200000000   -1.80795000000000
C        58.26407300000000   -2.68319600000000   -0.90592000000000
N        57.86208200000000   -1.57618400000000   -0.12314800000000
C        59.52514700000000   -3.38733700000000   -0.65300600000000
C        60.62036400000000   -2.82864400000000   -0.19057300000000
C        61.69399000000000   -3.32084900000000    0.70264900000000
C        62.53155300000001   -2.32708200000000    0.81173400000000
C        62.09325500000000   -1.15893400000000    0.03449900000000
N        60.98831700000000   -1.50032600000000   -0.52280000000000
C        62.70409000000001    0.14930200000000   -0.13937100000000
C        62.03992900000000    1.28183500000000   -0.18447700000000
C        62.41377800000000    2.50396100000000   -0.92819200000000
C        61.46503100000001    3.36568800000000   -0.67491300000000
C        60.47930700000000    2.75349300000000    0.20975000000000
N        60.83235300000000    1.53541500000000    0.48536000000000
C        59.24841900000000    3.31548800000000    0.76944500000000
C        58.12537800000000    2.63128300000000    0.91211200000000
N        57.79677700000001    1.51650800000000    0.09267800000000
H        56.98062900000001    3.62007000000000    2.64213100000000
H        55.20845700000000    1.85417500000000    2.21737900000000
H        55.36566000000001   -1.80548600000000   -2.19663400000000
H        57.31090500000000   -3.67134700000000   -2.57777000000000
H        59.57287000000001   -4.46243500000000   -0.85982000000000
H        61.74681100000000   -4.30026600000000    1.15377600000000
H        63.44318300000000   -2.40655400000000    1.42496000000000
H        63.80234000000001    0.16485700000000   -0.23745800000000
H        63.28263400000001    2.67590500000000   -1.55614400000000
H        61.46787700000000    4.37716900000000   -1.09329100000000
H        59.28390100000000    4.37150400000000    1.08271400000000
C        30.45919600000000    0.01689400000000   -0.00784000000000
C        31.67540100000000    0.01689400000000   -0.00784000000000
C        41.27281800000001    0.01689400000000   -0.00784000000000
C        42.48902300000001    0.01689400000000   -0.00784000000000
C        52.08644000000000    0.01689400000000   -0.00784000000000
C        53.30264500000000    0.01689400000000   -0.00784000000000
Cu       36.50560500000000    0.02969500000000    0.00564600000000
C        34.22579500000001   -3.23175200000000   -0.90402000000000
C        33.26958500000000   -2.33240200000000   -1.00604600000000
C        33.66195900000000   -1.17009700000000   -0.20353000000000
C        33.02684300000000   -0.01882400000000    0.00873600000000
C        33.71230000000000    1.25577500000000    0.23496500000000
C        33.37701000000000    2.33437500000000    0.93920500000000
C        34.40155100000000    3.35369200000000    0.84862400000000
C        35.35214800000000    2.85676700000000    0.07525900000000
N        34.97515400000000    1.54016200000000   -0.34088400000000
C        36.59928800000000    3.46846900000000   -0.34160600000000
C        37.70084000000000    2.80121200000000   -0.67337800000000
C        38.69438600000001    3.05319600000000   -1.70754800000000
C        39.58826900000000    2.09233700000000   -1.60606400000000
C        39.20857100000001    1.18045300000000   -0.50208700000000
N        38.11365600000000    1.62977200000000    0.00528000000000
C        39.86577800000000   -0.01882400000000    0.00873600000000
C        39.24236700000001   -1.08800600000000    0.47025200000000
C        39.62107900000001   -2.02012200000000    1.54572800000000
C        38.68041100000001   -2.93426800000000    1.63159400000000
C        37.67210900000000   -2.63848900000000    0.63416700000000
N        38.00988400000000   -1.58511100000000   -0.01512800000000
C        36.41971600000001   -3.34549600000000    0.30297400000000
C        35.30583900000000   -2.74880000000000   -0.04436800000000
N        34.92372700000001   -1.46604200000000    0.37331500000000
H        34.22613900000000   -4.22282600000000   -1.39525400000000
H        32.36105100000000   -2.45409600000000   -1.58719400000000
H        32.45215800000000    2.45272700000000    1.51613100000000
H        34.42884600000000    4.34285600000000    1.30527400000000
H        36.68522800000001    4.56584700000000   -0.40362900000000
H        38.72705800000000    3.85941200000000   -2.43437200000000
H        40.48133100000000    1.97936900000000   -2.23983800000000
H        40.53583000000000   -1.94571500000000    2.15589800000000
H        38.69945700000000   -3.74787600000000    2.33986100000000
H        36.45820100000000   -4.44545500000000    0.36201000000000
Cu       47.31922700000000    0.02969500000000    0.00564600000000
C        45.03941700000000   -3.23175200000000   -0.90402000000000
C        44.08320700000000   -2.33240200000000   -1.00604600000000
C        44.47558100000000   -1.17009700000000   -0.20353000000000
C        43.84046500000000   -0.01882400000000    0.00873600000000
C        44.52592200000000    1.25577500000000    0.23496500000000
C        44.19063200000000    2.33437500000000    0.93920500000000
C        45.21517300000000    3.35369200000000    0.84862400000000
C        46.16577000000001    2.85676700000000    0.07525900000000
N        45.78877600000001    1.54016200000000   -0.34088400000000
C        47.41291000000000    3.46846900000000   -0.34160600000000
C        48.51446200000000    2.80121200000000   -0.67337800000000
C        49.50800800000000    3.05319600000000   -1.70754800000000
C        50.40189100000000    2.09233700000000   -1.60606400000000
C        50.02219300000000    1.18045300000000   -0.50208700000000
N        48.92727800000001    1.62977200000000    0.00528000000000
C        50.67940000000000   -0.01882400000000    0.00873600000000
C        50.05598900000000   -1.08800600000000    0.47025200000000
C        50.43470100000000   -2.02012200000000    1.54572800000000
C        49.49403300000000   -2.93426800000000    1.63159400000000
C        48.48573100000000   -2.63848900000000    0.63416700000000
N        48.82350600000000   -1.58511100000000   -0.01512800000000
C        47.23333800000000   -3.34549600000000    0.30297400000000
C        46.11946100000000   -2.74880000000000   -0.04436800000000
N        45.73734900000000   -1.46604200000000    0.37331500000000
H        45.03976100000000   -4.22282600000000   -1.39525400000000
H        43.17467300000000   -2.45409600000000   -1.58719400000000
H        43.26578000000000    2.45272700000000    1.51613100000000
H        45.24246800000000    4.34285600000000    1.30527400000000
H        47.49885000000000    4.56584700000000   -0.40362900000000
H        49.54068000000000    3.85941200000000   -2.43437200000000
H        51.29495300000001    1.97936900000000   -2.23983800000000
H        51.34945100000001   -1.94571500000000    2.15589800000000
H        49.51307900000000   -3.74787600000000    2.33986100000000
H        47.27182200000001   -4.44545500000000    0.36201000000000
148
 energy: -267.216472991394 gnorm: 0.386139490706 xtb: 6.4.1 (bd6e46d)
Cu       24.40469307965547    0.03984743926937   -0.01008508330436
C        26.72312438553714   -3.11598115677073    1.29947529047227
C        27.65414986042622   -2.16144599890849    1.25596507748430
C        27.22281065513030   -1.10878930270452    0.34713591060522
C        27.83048195280143    0.03985942000703   -0.00888628163315
C        27.12795121213865    1.23538820564083   -0.36214554296232
C        27.48278436479184    2.22746182883212   -1.23843949465758
C        26.46687632518322    3.21498300579732   -1.25119506462681
C        25.49209215351839    2.80844912595082   -0.38351720052617
N        25.87258871224561    1.57919099948699    0.17515838907269
C        24.25788408546841    3.47724880087368   -0.00988461190734
C        23.13129440621249    2.82917329151594    0.34076992836856
C        22.06681159611453    3.17407656494579    1.28952682855315
C        21.20264124195299    2.16007036296901    1.23714441315384
C        21.66436212799190    1.16584533184375    0.27022588277087
N        22.81186038270291    1.57692186485221   -0.20898062322241
C        21.04556637944427   -0.06577165884371   -0.15520733778715
C        21.72492678886926   -1.19641547067931   -0.42114077027830
C        21.33757923052412   -2.25810667841094   -1.35665119932116
C        22.30448297360590   -3.17306658240680   -1.28223221043858
C        23.29255186103916   -2.72066672392732   -0.31186637969431
N        22.94551303897823   -1.53950624247319    0.16261880115176
C        24.49528089411089   -3.37451980501825    0.13615663487170
C        25.64399988156994   -2.70650826968293    0.41314448393983
N        25.95927498060767   -1.46746157421252   -0.15212620192191
H        26.77123716744437   -4.00994509226409    1.91805708016602
H        28.56020177637500   -2.19024550349113    1.83479933283207
H        28.39454370027225    2.22467078238087   -1.82377792255037
H        26.45988864561061    4.11431022416773   -1.85071044347174
H        24.20933142829443    4.56988300337920   -0.00498861613754
H        22.02346605260329    4.04226676079423    1.92630119670084
H        20.31198301472833    2.12155708730851    1.84905071844111
H        19.96101012729994   -0.07494165131519   -0.26883044254537
H        20.48066509167061   -2.29775071413060   -2.01302893684005
H        22.30703220247314   -4.07222173935754   -1.87944308158928
H        24.47150505103123   -4.45922746012839    0.25792801519315
Cu       59.35717284565970   -0.00526774475506   -0.01429235902123
C        57.03880264540873    2.85279788337352    1.85803185676744
C        56.10765647064580    1.92301366869745    1.63808001981095
C        56.53875868902260    1.05738989826950    0.54970603581085
C        55.93042168187525   -0.00587058769508   -0.01225161139953
C        56.63386027736093   -1.11454614786628   -0.58212327128601
C        56.27908854020009   -1.92696847494176   -1.62705050802007
C        57.29502142553979   -2.89506778630260   -1.82286931649798
C        58.26973736436462   -2.65660585080948   -0.89488300720735
N        57.88919539095263   -1.55208236329982   -0.11807445975049
C        59.50392787909006   -3.38305300829721   -0.65181727285981
C        60.63054025980701   -2.81122034100895   -0.18698585345229
C        61.69500351893652   -3.32613037281386    0.68131183183498
C        62.55924472134384   -2.32004125222469    0.81786857385655
C        62.09751442188709   -1.16368340975631    0.05223151553470
N        60.94994333421491   -1.47878585294509   -0.49487774288397
C        62.71628253070173    0.12541792901641   -0.13728749325252
C        62.03687826424572    1.28582881570891   -0.18890593350113
C        62.42420424561515    2.50260320182552   -0.91124696524098
C        61.45736349771593    3.38794125846051   -0.66827837450737
C        60.46929165655447    2.76337740997604    0.20128475187833
N        60.81637178081470    1.51461932448772    0.44837416403225
C        59.26656805023050    3.32272181652576    0.76275009048874
C        58.11783710654638    2.61482795447212    0.91114415950579
N        57.80254678702121    1.50207109827393    0.12587033249823
H        56.99062827330175    3.61654031762452    2.63164884751700
H        55.20164722340901    1.84394568660516    2.21225995273903
H        55.36732110675085   -1.81566734897575   -2.20184151120770
H        57.30197449961035   -3.66753221137231   -2.57887849615189
H        59.55253787876437   -4.45761056481935   -0.84976079119864
H        61.73837246364958   -4.29740679385586    1.14595013522616
H        63.44986811419671   -2.39570997224437    1.42635422208503
H        63.80083710528134    0.15554656743826   -0.24721321615586
H        63.28115701657025    2.66334645895255   -1.54883409125893
H        61.45479788168002    4.38224844313778   -1.08836639539179
H        59.29029167817724    4.36604389001937    1.08356533667146
C        30.42157793474599    0.01534535521521   -0.01009539994619
C        31.64749340671585    0.02751129891800   -0.00962175508906
C        41.26803021338472    0.02559579187897   -0.00556319315917
C        42.48502423578536    0.02697643449148   -0.00929635805342
C        52.11184037444063    0.02573166759386   -0.00205817436492
C        53.33381107671739    0.01675086749872   -0.00953539653448
Cu       36.49578113711085    0.03199371478023    0.00155716020329
C        34.22644903619022   -3.25158084364696   -0.89563351466664
C        33.26312048485248   -2.33157339417116   -0.99665643800266
C        33.68716134596944   -1.18306080888097   -0.20726122203086
C        33.03422956782335    0.00429270188653    0.00632075011224
C        33.74187213093325    1.25932954164881    0.23148409162834
C        33.36612603010673    2.36325106881166    0.95078533552952
C        34.37448139233798    3.35436636851877    0.85690343206477
C        35.36303150947668    2.83165932700047    0.07191385702217
N        35.00624344035901    1.52139058453845   -0.32321746125620
C        36.58323377486794    3.46503126065632   -0.34439654582319
C        37.70915185900233    2.78705199584972   -0.67402641378891
C        38.70389005517358    3.06225076208741   -1.69156845230447
C        39.61070909446788    2.07932951707664   -1.60525711626126
C        39.20970000460946    1.18101910197645   -0.51810845534667
N        38.07468598928891    1.60381223549881   -0.01790050679683
C        39.87730640294786    0.00015724071830   -0.00099240002374
C        39.22799979659256   -1.10195858739455    0.47608719863284
C        39.63336499879754   -2.01973872662693    1.53393945285135
C        38.67667756542205   -2.95384795669839    1.62919997320203
C        37.66036417389481   -2.64456145337355    0.64447552196337
N        37.99002628513008   -1.54175828775864    0.00279649472083
C        36.44125759001638   -3.35109386216415    0.31440131281220
C        35.29291655699409   -2.73390980798344   -0.05246369991985
N        34.93918768004158   -1.44916065028889    0.33540276737110
H        34.23233971363830   -4.21988311838633   -1.39062943077479
H        32.36158867053697   -2.44169437902164   -1.58120960461479
H        32.45066837637907    2.45831792112134    1.51786719544937
H        34.41504349013582    4.33601403019477    1.30803493350911
H        36.66338973221409    4.55733255139589   -0.41157888932045
H        38.71873537289080    3.85784956820827   -2.42401165773007
H        40.48343040228723    1.97096286887439   -2.23616957214036
H        40.52967705517225   -1.93932774691275    2.14547148353926
H        38.69033146577840   -3.75604409264695    2.34041400979640
H        36.46578298198533   -4.44168965081772    0.35968780970699
Cu       47.30872163060857    0.03247802690461    0.00184447958601
C        45.03866307288166   -3.25340973399506   -0.89425306508553
C        44.07771811967893   -2.33273582435670   -0.99630740401819
C        44.50417310774501   -1.18551003358802   -0.20366654184193
C        43.85422222602580    0.00297017171743    0.00681378632039
C        44.55901356844608    1.26191893214285    0.23036262590158
C        44.18139186251121    2.36277749686718    0.95105870718331
C        45.18864190214826    3.35593795506325    0.85585237010443
C        46.17740462174280    2.83353949378179    0.07212143429595
N        45.81965161506082    1.52212173913887   -0.32373293410860
C        47.39704038610034    3.46502817154637   -0.34317565512068
C        48.52385833581607    2.78614195757073   -0.67311751352088
C        49.51722845517224    3.06114843781850   -1.69191642014500
C        50.42510876817303    2.07912468105393   -1.60565162802849
C        50.02557900473939    1.17729252856672   -0.52076454564884
N        48.88952081815562    1.60252693744562   -0.01779758482384
C        50.69695502414984   -0.00052140805382   -0.00056071332614
C        50.04636691227255   -1.09796266976536    0.47718513688080
C        50.44941072229575   -2.02014969633370    1.53299017378804
C        49.48961772919312   -2.95054776042599    1.63110881262335
C        48.47579564406611   -2.64165605856811    0.64465442786504
N        48.80347719318446   -1.54222759089645    0.00293848769884
C        47.25340183803939   -3.35168996848211    0.31155630405546
C        46.10807607328594   -2.73576083875172   -0.05203381927289
N        45.75347169926587   -1.44896438339947    0.33537474450974
H        45.04566332111261   -4.22046558005102   -1.39085855968636
H        43.17572755486398   -2.44171685229018   -1.58126906320194
H        43.26454085944800    2.45810734943004    1.51731433621751
H        45.22883547267870    4.33663929841303    1.30814447066317
H        47.47731692246190    4.55733540763162   -0.41119123871317
H        49.53223197177437    3.85756061435475   -2.42384998586338
H        51.29736436395741    1.97104521311840   -2.23647566843506
H        51.34421957210657   -1.93969244189069    2.14549048276368
H        49.50391459962104   -3.75522459080250    2.34024560855896
H        47.27972417043024   -4.44202240475262    0.35707513528497
148
 energy: -267.357273192505 gnorm: 0.153585478156 xtb: 6.4.1 (bd6e46d)
Cu       24.41402273425615    0.03891291052269   -0.00755364332335
C        26.72351510789726   -3.12167959053301    1.28608474811342
C        27.66979491453473   -2.16063305626912    1.24946640520339
C        27.21683558326862   -1.10849099923224    0.35939821080919
C        27.81207370302497    0.06098739790403   -0.02223437101551
C        27.11623484450235    1.22923357138522   -0.35754852580149
C        27.49215429377739    2.25844416613426   -1.24880611157617
C        26.50126755373741    3.21209033996182   -1.25405090898062
C        25.48699224540556    2.77637032885778   -0.37514449985381
N        25.84820906182150    1.55361015398990    0.15765147985706
C        24.28294371450852    3.46395923153938   -0.00920397290402
C        23.13130421993100    2.80130832085351    0.34895019940438
C        22.07184248843967    3.17593992835118    1.26299586542779
C        21.17930801786386    2.15596430429892    1.23168429823715
C        21.66155966941914    1.16482646610824    0.29176595055136
N        22.85534332296103    1.54634119059779   -0.17292168244591
C        21.04015958772576   -0.04370148434503   -0.14751457412992
C        21.73529464437036   -1.19254824325353   -0.43520635596039
C        21.33357367096377   -2.25717534119277   -1.33557030729384
C        22.30788211204017   -3.19253637800389   -1.27087297976656
C        23.30465244498860   -2.72437486365318   -0.32432002454544
N        22.96505865945428   -1.50142691514059    0.11728690935387
C        24.47882408895082   -3.37269099346725    0.12681170254082
C        25.64755389901650   -2.68293210094189    0.41901671244668
N        25.95003485269128   -1.45764151171302   -0.10849475783100
H        26.76009780754306   -4.00483809655118    1.90295771243286
H        28.57050063199775   -2.17763846109933    1.82714540268814
H        28.39345599184304    2.23416825154878   -1.82366187248858
H        26.46434440074841    4.10858763023944   -1.84614248384197
H        24.23160058709422    4.55420599329627   -0.00189097145010
H        22.03265158259483    4.03746826772151    1.91002800666598
H        20.30450749149103    2.11005412266164    1.84294465343861
H        19.96520857166399   -0.06706341099572   -0.27040572436451
H        20.48381033153900   -2.28640128339345   -1.99723187668014
H        22.32056847894830   -4.07941634317830   -1.86990810296154
H        24.47023105483536   -4.44966568841869    0.25444737251224
Cu       59.34784621079750   -0.00488144401222   -0.01156206654135
C        57.03850766343221    2.86074998367540    1.84596884159444
C        56.09202252691539    1.92333987668924    1.63136734338966
C        56.54478535479545    1.05490484446420    0.56130425478304
C        55.94824646735803   -0.02359398232980   -0.03040285236889
C        56.64553885761923   -1.10916008381762   -0.57666649520160
C        56.26970863026357   -1.95555239651621   -1.64293736714474
C        57.26065866248582   -2.89174660094271   -1.82507497033973
C        58.27484674620041   -2.62666749409915   -0.88065356471455
N        57.91358262632669   -1.52335122819471   -0.13073326460404
C        59.47880073989899   -3.37012731683813   -0.64864524454621
C        60.63049825501371   -2.78529802291027   -0.17370127848708
C        61.68991866313768   -3.32297335965834    0.65494489774057
C        62.58264013534050   -2.31497972709615    0.81315756537342
C        62.10035845482898   -1.16662616360115    0.07359532261390
N        60.90630163957402   -1.45539952803077   -0.45359014526825
C        62.72168744513464    0.10224612325413   -0.13376587274005
C        62.02643742394562    1.28463153451518   -0.20349758850826
C        62.42812697475881    2.49771523458175   -0.89078498716699
C        61.45396058415420    3.40498613583362   -0.65344140039815
C        60.45716742620686    2.76937010134604    0.18974187097542
N        60.79679280855059    1.48551073966684    0.39665214048814
C        59.28304929660951    3.32262719995223    0.75316016550967
C        58.11434011761026    2.59043249398931    0.91264095095132
N        57.81189520254751    1.48425773214665    0.16686717274240
H        57.00178214087381    3.61427529806458    2.61583448239726
H        55.19134476802591    1.83304160894417    2.20226729626982
H        55.36847089864965   -1.82508668403980   -2.20350788630228
H        57.29751142386707   -3.66278530069949   -2.57328130227811
H        59.53029181742004   -4.44276292711673   -0.84389003653143
H        61.72917761916214   -4.28963147132633    1.13086990807931
H        63.45735655145995   -2.38325298081853    1.42246054591901
H        63.79664462865014    0.14810032818358   -0.25010760573450
H        63.27797489813906    2.64924038523603   -1.53544127587014
H        61.44125041695115    4.38754426778604   -1.07766536811027
H        59.29149493526692    4.35731863922443    1.07818028362798
C        30.39107034104394    0.02305032878042    0.00056573590349
C        31.61940661126090    0.03762520201250   -0.00905209456919
C        41.26502357967517    0.02904907908753   -0.00253016087955
C        42.48890219970313    0.03472861465535   -0.01132771495335
C        52.14140644747804    0.02410926993198    0.00002168990813
C        53.36753894224422    0.00867371183299    0.00153978381279
Cu       36.49099589106511    0.03433500827319   -0.00269492556219
C        34.23146336466144   -3.26543202272324   -0.88472509416545
C        33.25985539142633   -2.32595656365947   -0.98285897222695
C        33.71155188648208   -1.18664124338223   -0.21610946350395
C        33.03705856010880    0.02996059568604    0.00499903793482
C        33.77238940291659    1.25649190283371    0.22828515052870
C        33.35813388386475    2.39135636992837    0.95380769478850
C        34.34588049111688    3.34915532555885    0.85633220483770
C        35.37467764367033    2.80191982953367    0.06915982130454
N        35.03604784460018    1.50006260360472   -0.28609967355422
C        36.56304961732976    3.45466374660183   -0.34745269817934
C        37.70877202116444    2.76233887028481   -0.68187243125745
C        38.70988009142292    3.06544915747863   -1.67068233430862
C        39.63018769547350    2.06783706558126   -1.59326116928816
C        39.20930283741591    1.17702134863532   -0.53529467317824
N        38.02937088143739    1.57197449704015   -0.05137771160494
C        39.88718768929367    0.01725598932486   -0.01175270623675
C        39.20540629091342   -1.10762229757562    0.48700515801763
C        39.63746475842238   -2.01487859893391    1.51697941263700
C        38.67440215098263   -2.97147459547210    1.61495091931101
C        37.64546085008597   -2.64724503997493    0.65604019325875
N        37.96899846081761   -1.48730258316512    0.03340913307396
C        36.46213206202734   -3.34647388399706    0.32625442675572
C        35.28824829817407   -2.71450765166296   -0.06817487043083
N        34.95554086933459   -1.43101361672545    0.28733451733362
H        34.23914639941658   -4.21759732543979   -1.38033138024649
H        32.36221876119091   -2.42636864693152   -1.56843598717194
H        32.44841872070810    2.46103022386785    1.51484835576644
H        34.40223881088462    4.32573162648575    1.30589160081794
H        36.63798777207025    4.54183189245087   -0.41421304850519
H        38.70965920576498    3.85545758894709   -2.40567859167608
H        40.48680321959925    1.96211332909028   -2.22666264838622
H        40.52161725128085   -1.93370627958838    2.12855789946435
H        38.67984611604178   -3.76476852931165    2.33374827338986
H        36.46784520134983   -4.43130127738496    0.36418662183383
Cu       47.30402271041689    0.03539358423181   -0.00230176405157
C        45.04249754869406   -3.27070244178519   -0.88093990638079
C        44.07722948308732   -2.32796056295933   -0.98246638758031
C        44.53720843719933   -1.19317625720794   -0.20814048523632
C        43.86984869878724    0.02850960635430    0.00475790310144
C        44.59764418062277    1.26385731684948    0.22394932086101
C        44.17651644798619    2.39097685186986    0.95433358403740
C        45.16058597881742    3.35384163454520    0.85319467875604
C        46.19155328255484    2.80809167471772    0.06895818528184
N        45.85154971742636    1.50254113720997   -0.28719148525837
C        47.37817077163885    3.45427440822579   -0.34356837686704
C        48.52600388307241    2.75814066618582   -0.67985351963297
C        49.52262179751710    3.06145975689777   -1.67208695463573
C        50.44677323653811    2.06704597130496   -1.59422914873476
C        50.03192160041206    1.16859331678296   -0.54075972661882
N        48.84771585299951    1.56827268699008   -0.05134116114285
C        50.71778096345941    0.01653169956469   -0.01047587306998
C        50.03273640575604   -1.09800084287606    0.49019052106298
C        50.45728976768341   -2.01564940140433    1.51545199232041
C        49.48671658289572   -2.96350269060562    1.61970995994936
C        48.46398979371080   -2.63902420017549    0.65640498825318
N        48.78382519190789   -1.48682829514456    0.03267628375704
C        47.27389016137702   -3.34838988334743    0.31978109256603
C        46.10570390333561   -2.72071527148316   -0.06641306531167
N        45.77173211142503   -1.43188560301460    0.28758996226137
H        45.05221049116631   -4.21978874234928   -1.38068149226107
H        43.17777419071893   -2.42566928219802   -1.56767433864099
H        43.26385774161376    2.46005768854952    1.51321683766734
H        45.21604787176221    4.32783971311159    1.30630236905053
H        47.45380722642789    4.54153322841262   -0.41183125820933
H        49.52289357460324    3.85418834506043   -2.40500414633064
H        51.30194298464712    1.96240106609019   -2.22812384349258
H        51.33823536122937   -1.93480903761070    2.12935118050837
H        49.49330052631253   -3.76233751957581    2.33343411417653
H        47.28427663045643   -4.43253597289176    0.35675032698352
148