      -----------------------------------------------------------      
     |                   =====================                   |     
     |                           x T B                           |     
     |                   =====================                   |     
     |                         S. Grimme                         |     
     |          Mulliken Center for Theoretical Chemistry        |     
     |                    University of Bonn                     |     
      -----------------------------------------------------------      

   * xtb version 6.4.1 (bd6e46d) compiled by 'conda@4901f00b25ba' on 2021-06-10

   xtb is free software: you can redistribute it and/or modify it under
   the terms of the GNU Lesser General Public License as published by
   the Free Software Foundation, either version 3 of the License, or
   (at your option) any later version.
   
   xtb is distributed in the hope that it will be useful,
   but WITHOUT ANY WARRANTY; without even the implied warranty of
   MERCHANTABILITY or FITNESS FOR A PARTICULAR PURPOSE.  See the
   GNU Lesser General Public License for more details.
   
   Cite this work as:
   * C. Bannwarth, E. Caldeweyher, S. Ehlert, A. Hansen, P. Pracht,
     J. Seibert, S. Spicher, S. Grimme, WIREs Comput. Mol. Sci., 2020, 11,
     e01493. DOI: 10.1002/wcms.1493
   
   for GFN2-xTB:
   * C. Bannwarth, S. Ehlert and S. Grimme., J. Chem. Theory Comput., 2019,
     15, 1652-1671. DOI: 10.1021/acs.jctc.8b01176
   for GFN1-xTB:
   * S. Grimme, C. Bannwarth, P. Shushkov, J. Chem. Theory Comput., 2017,
     13, 1989-2009. DOI: 10.1021/acs.jctc.7b00118
   for GFN0-xTB:
   * P. Pracht, E. Caldeweyher, S. Ehlert, S. Grimme, ChemRxiv, 2019, preprint.
     DOI: 10.26434/chemrxiv.8326202.v1
   for GFN-FF:
   * S. Spicher and S. Grimme, Angew. Chem. Int. Ed., 2020, 59, 15665-15673.
     DOI: 10.1002/anie.202004239
   
   for DFT-D4:
   * E. Caldeweyher, C. Bannwarth and S. Grimme, J. Chem. Phys., 2017,
     147, 034112. DOI: 10.1063/1.4993215
   * E. Caldeweyher, S. Ehlert, A. Hansen, H. Neugebauer, S. Spicher,
     C. Bannwarth and S. Grimme, J. Chem. Phys., 2019, 150, 154122.
     DOI: 10.1063/1.5090222
   * E. Caldeweyher, J.-M. Mewes, S. Ehlert and S. Grimme, Phys. Chem. Chem. Phys.
     2020, 22, 8499-8512. DOI: 10.1039/D0CP00502A
   
   for sTDA-xTB:
   * S. Grimme and C. Bannwarth, J. Chem. Phys., 2016, 145, 054103.
     DOI: 10.1063/1.4959605
   
   in the mass-spec context:
   * V. Asgeirsson, C. Bauer and S. Grimme, Chem. Sci., 2017, 8, 4879.
     DOI: 10.1039/c7sc00601b
   * J. Koopman and S. Grimme, ACS Omega 2019, 4, 12, 15120-15133.
     DOI: 10.1021/acsomega.9b02011
   
   for metadynamics refer to:
   * S. Grimme, J. Chem. Theory Comput., 2019, 155, 2847-2862
     DOI: 10.1021/acs.jctc.9b00143
   
   for SPH calculations refer to:
   * S. Spicher and S. Grimme, J. Chem. Theory Comput., 2021, 17, 1701-1714
     DOI: 10.1021/acs.jctc.0c01306
   
   with help from (in alphabetical order)
   P. Atkinson, C. Bannwarth, F. Bohle, G. Brandenburg, E. Caldeweyher
   M. Checinski, S. Dohm, S. Ehlert, S. Ehrlich, I. Gerasimov, J. Koopman
   C. Lavigne, S. Lehtola, F. März, M. Müller, F. Musil, H. Neugebauer
   J. Pisarek, C. Plett, P. Pracht, J. Seibert, P. Shushkov, S. Spicher
   M. Stahn, M. Steiner, T. Strunk, J. Stückrath, T. Rose, and J. Unsleber
   
 * started run on 2021/11/18 at 17:18:11.690     

           -------------------------------------------------
          |                Calculation Setup                |
           -------------------------------------------------

          program call               : /home/jeff/miniconda3/bin/xtb input_structure_1.xyz --gfn 2 --ohess normal --parallel 1 --etemp 300 --chrg 0 --uhf 0 -I det_control.in
          hostname                   : jelfscompute1
          coordinate file            : input_structure_1.xyz
          omp threads                :                     1
          number of atoms            :                    80
          number of electrons        :                   250
          charge                     :                     0
          spin                       :                   0.0
          first test random number   :      0.97097351382662

   ID    Z sym.   atoms
    1    6 C      1-8, 10-14, 16-20, 22, 23, 38-51, 53-57, 59-63, 65, 66
    2    7 N      9, 15, 21, 24, 52, 58, 64, 67
    3    1 H      25-37, 68-80

           -------------------------------------------------
          |                 G F N 2 - x T B                 |
           -------------------------------------------------

        Reference                      10.1021/acs.jctc.8b01176
      * Hamiltonian:
        H0-scaling (s, p, d)           1.850000    2.230000    2.230000
        zeta-weighting                 0.500000
      * Dispersion:
        s8                             2.700000
        a1                             0.520000
        a2                             5.000000
        s9                             5.000000
      * Repulsion:
        kExp                           1.500000    1.000000
        rExp                           1.000000
      * Coulomb:
        alpha                          2.000000
        third order                    shell-resolved
        anisotropic                    true
        a3                             3.000000
        a5                             4.000000
        cn-shift                       1.200000
        cn-exp                         4.000000
        max-rad                        5.000000


          ...................................................
          :                      SETUP                      :
          :.................................................:
          :  # basis functions                 242          :
          :  # atomic orbitals                 242          :
          :  # shells                          134          :
          :  # electrons                       250          :
          :  max. iterations                   250          :
          :  Hamiltonian                  GFN2-xTB          :
          :  restarted?                      false          :
          :  GBSA solvation                  false          :
          :  PC potential                    false          :
          :  electronic temp.          300.0000000     K    :
          :  accuracy                    1.0000000          :
          :  -> integral cutoff          0.2500000E+02      :
          :  -> integral neglect         0.1000000E-07      :
          :  -> SCF convergence          0.1000000E-05 Eh   :
          :  -> wf. convergence          0.1000000E-03 e    :
          :  Broyden damping             0.4000000          :
          ...................................................

 iter      E             dE          RMSdq      gap      omega  full diag
   1   -136.9483095 -0.136948E+03  0.545E+00    0.72       0.0  T
   2   -137.1486683 -0.200359E+00  0.340E+00    0.80       1.0  T
   3   -137.0948351  0.538332E-01  0.133E+00    0.77       1.0  T
   4   -137.0529608  0.418743E-01  0.100E+00    0.55       1.0  T
   5   -137.1542686 -0.101308E+00  0.406E-01    0.81       1.0  T
   6   -137.1725445 -0.182759E-01  0.155E-01    0.81       1.0  T
   7   -137.1748642 -0.231969E-02  0.685E-02    0.81       1.0  T
   8   -137.1751535 -0.289339E-03  0.365E-02    0.80       1.0  T
   9   -137.1752629 -0.109406E-03  0.191E-02    0.80       1.0  T
  10   -137.1752803 -0.173646E-04  0.934E-03    0.80       1.2  T
  11   -137.1752866 -0.628623E-05  0.372E-03    0.80       3.0  T
  12   -137.1752867 -0.141638E-06  0.308E-03    0.80       3.6  T
  13   -137.1752877 -0.954591E-06  0.147E-03    0.80       7.6  T
  14   -137.1752879 -0.195371E-06  0.572E-04    0.80      19.5  T
  15   -137.1752879 -0.248892E-07  0.246E-04    0.80      45.5  T

   *** convergence criteria satisfied after 15 iterations ***

         #    Occupation            Energy/Eh            Energy/eV
      -------------------------------------------------------------
         1        2.0000           -0.6881006             -18.7242
       ...           ...                  ...                  ...
       119        2.0000           -0.3657994              -9.9539
       120        2.0000           -0.3593670              -9.7789
       121        2.0000           -0.3542277              -9.6390
       122        2.0000           -0.3520164              -9.5789
       123        2.0000           -0.3442779              -9.3683
       124        2.0000           -0.3431926              -9.3387
       125        2.0000           -0.3400327              -9.2528 (HOMO)
       126        0.0000           -0.3105244              -8.4498 (LUMO)
       127                         -0.3067366              -8.3467
       128                         -0.2905023              -7.9050
       129                         -0.2874736              -7.8226
       130                         -0.2672924              -7.2734
       ...                                ...                  ...
       242                          1.6223887              44.1474
      -------------------------------------------------------------
                  HL-Gap            0.0295084 Eh            0.8030 eV
             Fermi-level           -0.3252653 Eh           -8.8509 eV

 SCC (total)                   0 d,  0 h,  0 min,  0.273 sec
 SCC setup                      ...        0 min,  0.001 sec (  0.415%)
 Dispersion                     ...        0 min,  0.002 sec (  0.890%)
 classical contributions        ...        0 min,  0.000 sec (  0.164%)
 integral evaluation            ...        0 min,  0.023 sec (  8.307%)
 iterations                     ...        0 min,  0.162 sec ( 59.337%)
 molecular gradient             ...        0 min,  0.083 sec ( 30.523%)
 printout                       ...        0 min,  0.001 sec (  0.360%)

         :::::::::::::::::::::::::::::::::::::::::::::::::::::
         ::                     SUMMARY                     ::
         :::::::::::::::::::::::::::::::::::::::::::::::::::::
         :: total energy            -134.680682676719 Eh    ::
         :: gradient norm              0.355480726568 Eh/a0 ::
         :: HOMO-LUMO gap              0.802963107049 eV    ::
         ::.................................................::
         :: SCC energy              -137.175287904240 Eh    ::
         :: -> isotropic ES            0.076427248476 Eh    ::
         :: -> anisotropic ES         -0.000131671959 Eh    ::
         :: -> anisotropic XC          0.106085574522 Eh    ::
         :: -> dispersion             -0.104670945025 Eh    ::
         :: repulsion energy           2.494668619254 Eh    ::
         :: add. restraining           0.000000000000 Eh    ::
         :: total charge               0.000000000001 e     ::
         :::::::::::::::::::::::::::::::::::::::::::::::::::::

      ----------------------------------------------------------- 
     |                   =====================                   |
     |                        A N C O P T                        |
     |                   =====================                   |
     |               Approximate Normal Coordinate               |
     |                Rational Function Optimizer                |
      ----------------------------------------------------------- 

          ...................................................
          :                      SETUP                      :
          :.................................................:
          :   optimization level            normal          :
          :   max. optcycles                   240          :
          :   ANC micro-cycles                  20          :
          :   degrees of freedom               234          :
          :.................................................:
          :   RF solver                   davidson          :
          :   write xtbopt.log                true          :
          :   linear?                        false          :
          :   energy convergence         0.5000000E-05 Eh   :
          :   grad. convergence          0.1000000E-02 Eh/α :
          :   maximium RF displ.         1.0000000          :
          :   Hlow (freq-cutoff)         0.1000000E-01      :
          :   Hmax (freq-cutoff)         5.0000000          :
          :   S6 in model hess.         20.0000000          :
          ...................................................

generating ANC from model Hessian ...
Using Lindh-Hessian (1995)
 Shifting diagonal of input Hessian by    9.9933989337899695E-003
 Lowest  eigenvalues of input Hessian
    0.000000    0.000000    0.000000    0.000000    0.000000    0.000000
    0.010000    0.010005    0.010009    0.010036    0.010086    0.010303
    0.010532    0.010939    0.010976    0.011357    0.011511    0.011708
 Highest eigenvalues
    2.221518    2.228770    2.240775    2.250367    2.521623    2.843837


........................................................................
.............................. CYCLE    1 ..............................
........................................................................
   1   -137.1752879 -0.137175E+03  0.108E-04    0.80       0.0  T
   2   -137.1752879  0.607798E-09  0.113E-04    0.80      99.2  T
   3   -137.1752879 -0.128341E-08  0.460E-05    0.80     243.0  T
     SCC iter.                  ...        0 min,  0.031 sec
     gradient                   ...        0 min,  0.076 sec
 * total energy  :  -134.6806827 Eh     change       -0.3113229E-08 Eh
   gradient norm :     0.3554786 Eh/α   predicted     0.0000000E+00 (-100.00%)
   displ. norm   :     0.5165583 α      lambda       -0.1303263E+00
   maximum displ.:     0.1311384 α      in ANC's #116, #118, #46, ...

........................................................................
.............................. CYCLE    2 ..............................
........................................................................
   1   -137.2463214 -0.137246E+03  0.370E-01    0.81       0.0  T
   2   -137.2468147 -0.493246E-03  0.220E-01    0.81       1.0  T
   3   -137.2430509  0.376376E-02  0.187E-01    0.81       1.0  T
   4   -137.2454047 -0.235377E-02  0.111E-01    0.81       1.0  T
   5   -137.2470616 -0.165688E-02  0.304E-02    0.81       1.0  T
   6   -137.2471442 -0.825952E-04  0.108E-02    0.81       1.0  T
   7   -137.2471518 -0.761558E-05  0.555E-03    0.81       2.0  T
   8   -137.2471489  0.289762E-05  0.655E-03    0.81       1.7  T
   9   -137.2471540 -0.510941E-05  0.143E-03    0.81       7.8  T
  10   -137.2471541 -0.115395E-06  0.778E-04    0.81      14.4  T
  11   -137.2471541 -0.373406E-07  0.376E-04    0.81      29.7  T
     SCC iter.                  ...        0 min,  0.107 sec
     gradient                   ...        0 min,  0.076 sec
 * total energy  :  -134.7807050 Eh     change       -0.1000223E+00 Eh
   gradient norm :     0.1696100 Eh/α   predicted    -0.8267815E-01 ( -17.34%)
   displ. norm   :     0.5952633 α      lambda       -0.6914280E-01
   maximum displ.:     0.1707025 α      in ANC's #37, #46, #116, ...

........................................................................
.............................. CYCLE    3 ..............................
........................................................................
   1   -137.3173327 -0.137317E+03  0.348E-01    0.81       0.0  T
   2   -137.3177292 -0.396481E-03  0.208E-01    0.82       1.0  T
   3   -137.3152687  0.246049E-02  0.157E-01    0.82       1.0  T
   4   -137.3170382 -0.176952E-02  0.831E-02    0.82       1.0  T
   5   -137.3178957 -0.857453E-03  0.309E-02    0.82       1.0  T
   6   -137.3180050 -0.109311E-03  0.933E-03    0.82       1.2  T
   7   -137.3180111 -0.608986E-05  0.446E-03    0.82       2.5  T
   8   -137.3180094  0.165148E-05  0.484E-03    0.82       2.3  T
   9   -137.3180122 -0.279403E-05  0.128E-03    0.82       8.7  T
  10   -137.3180123 -0.120871E-06  0.602E-04    0.82      18.6  T
  11   -137.3180124 -0.241222E-07  0.318E-04    0.82      35.2  T
     SCC iter.                  ...        0 min,  0.108 sec
     gradient                   ...        0 min,  0.076 sec
 * total energy  :  -134.8254355 Eh     change       -0.4473050E-01 Eh
   gradient norm :     0.0577797 Eh/α   predicted    -0.4682138E-01 (   4.67%)
   displ. norm   :     0.6943887 α      lambda       -0.2653313E-01
   maximum displ.:     0.2578852 α      in ANC's #37, #16, #46, ...

........................................................................
.............................. CYCLE    4 ..............................
........................................................................
   1   -137.3480096 -0.137348E+03  0.242E-01    0.88       0.0  T
   2   -137.3480303 -0.206847E-04  0.144E-01    0.87       1.0  T
   3   -137.3471250  0.905307E-03  0.875E-02    0.88       1.0  T
   4   -137.3479825 -0.857532E-03  0.274E-02    0.88       1.0  T
   5   -137.3480727 -0.901550E-04  0.918E-03    0.87       1.2  T
   6   -137.3480826 -0.988357E-05  0.312E-03    0.87       3.6  T
   7   -137.3480828 -0.240986E-06  0.182E-03    0.87       6.1  T
   8   -137.3480829 -0.554931E-07  0.137E-03    0.87       8.1  T
   9   -137.3480831 -0.248296E-06  0.373E-04    0.87      30.0  T
  10   -137.3480831 -0.113383E-07  0.172E-04    0.87      64.9  T
     SCC iter.                  ...        0 min,  0.098 sec
     gradient                   ...        0 min,  0.076 sec
 * total energy  :  -134.8480172 Eh     change       -0.2258171E-01 Eh
   gradient norm :     0.0408960 Eh/α   predicted    -0.1966341E-01 ( -12.92%)
   displ. norm   :     0.8392428 α      lambda       -0.2381047E-01
   maximum displ.:     0.3582368 α      in ANC's #16, #37, #36, ...

........................................................................
.............................. CYCLE    5 ..............................
........................................................................
   1   -137.3813468 -0.137381E+03  0.249E-01    0.95       0.0  T
   2   -137.3813631 -0.163318E-04  0.146E-01    0.95       1.0  T
   3   -137.3806044  0.758726E-03  0.740E-02    0.96       1.0  T
   4   -137.3813203 -0.715891E-03  0.246E-02    0.95       1.0  T
   5   -137.3814060 -0.857105E-04  0.580E-03    0.95       1.9  T
   6   -137.3814084 -0.244509E-05  0.299E-03    0.95       3.7  T
   7   -137.3814089 -0.482455E-06  0.122E-03    0.95       9.1  T
   8   -137.3814090 -0.105322E-06  0.564E-04    0.95      19.8  T
   9   -137.3814090 -0.292750E-07  0.206E-04    0.95      54.3  T
     SCC iter.                  ...        0 min,  0.088 sec
     gradient                   ...        0 min,  0.076 sec
 * total energy  :  -134.8686365 Eh     change       -0.2061934E-01 Eh
   gradient norm :     0.0339565 Eh/α   predicted    -0.2029062E-01 (  -1.59%)
   displ. norm   :     0.8738836 α      lambda       -0.2021077E-01
   maximum displ.:     0.4150619 α      in ANC's #16, #37, #13, ...

........................................................................
.............................. CYCLE    6 ..............................
........................................................................
   1   -137.4150437 -0.137415E+03  0.260E-01    1.04       0.0  T
   2   -137.4150659 -0.221819E-04  0.153E-01    1.04       1.0  T
   3   -137.4143370  0.728876E-03  0.733E-02    1.05       1.0  T
   4   -137.4150472 -0.710178E-03  0.213E-02    1.04       1.0  T
   5   -137.4151109 -0.637204E-04  0.507E-03    1.04       2.2  T
   6   -137.4151123 -0.135727E-05  0.299E-03    1.04       3.7  T
   7   -137.4151129 -0.572844E-06  0.130E-03    1.04       8.6  T
   8   -137.4151130 -0.954957E-07  0.527E-04    1.04      21.2  T
   9   -137.4151130 -0.224865E-07  0.219E-04    1.04      50.9  T
     SCC iter.                  ...        0 min,  0.088 sec
     gradient                   ...        0 min,  0.076 sec
 * total energy  :  -134.8855942 Eh     change       -0.1695766E-01 Eh
   gradient norm :     0.0310401 Eh/α   predicted    -0.1782260E-01 (   5.10%)
   displ. norm   :     0.8782805 α      lambda       -0.1734742E-01
   maximum displ.:     0.4645045 α      in ANC's #16, #13, #22, ...

........................................................................
.............................. CYCLE    7 ..............................
........................................................................
   1   -137.4429979 -0.137443E+03  0.259E-01    1.12       0.0  T
   2   -137.4430205 -0.226167E-04  0.152E-01    1.12       1.0  T
   3   -137.4426019  0.418602E-03  0.551E-02    1.12       1.0  T
   4   -137.4430041 -0.402238E-03  0.174E-02    1.12       1.0  T
   5   -137.4430486 -0.444818E-04  0.430E-03    1.12       2.6  T
   6   -137.4430490 -0.438370E-06  0.285E-03    1.12       3.9  T
   7   -137.4430495 -0.442757E-06  0.149E-03    1.12       7.5  T
   8   -137.4430497 -0.185361E-06  0.661E-04    1.12      16.9  T
   9   -137.4430497 -0.456355E-07  0.247E-04    1.12      45.2  T
     SCC iter.                  ...        0 min,  0.088 sec
     gradient                   ...        0 min,  0.076 sec
 * total energy  :  -134.8995156 Eh     change       -0.1392135E-01 Eh
   gradient norm :     0.0252179 Eh/α   predicted    -0.1536442E-01 (  10.37%)
   displ. norm   :     0.8434928 α      lambda       -0.1275646E-01
   maximum displ.:     0.5224420 α      in ANC's #16, #13, #22, ...

........................................................................
.............................. CYCLE    8 ..............................
........................................................................
   1   -137.4600761 -0.137460E+03  0.236E-01    1.18       0.0  T
   2   -137.4600831 -0.700063E-05  0.139E-01    1.17       1.0  T
   3   -137.4594554  0.627662E-03  0.670E-02    1.18       1.0  T
   4   -137.4600930 -0.637564E-03  0.146E-02    1.17       1.0  T
   5   -137.4601192 -0.261872E-04  0.430E-03    1.17       2.6  T
   6   -137.4601198 -0.595104E-06  0.279E-03    1.17       4.0  T
   7   -137.4601201 -0.327258E-06  0.123E-03    1.17       9.1  T
   8   -137.4601203 -0.173855E-06  0.530E-04    1.17      21.1  T
   9   -137.4601203 -0.314914E-07  0.205E-04    1.17      54.6  T
     SCC iter.                  ...        0 min,  0.088 sec
     gradient                   ...        0 min,  0.076 sec
 * total energy  :  -134.9100248 Eh     change       -0.1050920E-01 Eh
   gradient norm :     0.0244886 Eh/α   predicted    -0.1091621E-01 (   3.87%)
   displ. norm   :     0.8513571 α      lambda       -0.1078233E-01
   maximum displ.:     0.5604908 α      in ANC's #16, #13, #22, ...

........................................................................
.............................. CYCLE    9 ..............................
........................................................................
   1   -137.4726771 -0.137473E+03  0.246E-01    1.22       0.0  T
   2   -137.4726887 -0.116487E-04  0.145E-01    1.21       1.0  T
   3   -137.4722511  0.437655E-03  0.573E-02    1.22       1.0  T
   4   -137.4726934 -0.442369E-03  0.132E-02    1.21       1.0  T
   5   -137.4727153 -0.218280E-04  0.409E-03    1.21       2.7  T
   6   -137.4727157 -0.421391E-06  0.301E-03    1.21       3.7  T
   7   -137.4727162 -0.538533E-06  0.121E-03    1.21       9.2  T
   8   -137.4727163 -0.110176E-06  0.537E-04    1.21      20.8  T
   9   -137.4727164 -0.324896E-07  0.211E-04    1.21      53.1  T
     SCC iter.                  ...        0 min,  0.088 sec
     gradient                   ...        0 min,  0.076 sec
 * total energy  :  -134.9181572 Eh     change       -0.8132410E-02 Eh
   gradient norm :     0.0241018 Eh/α   predicted    -0.9298727E-02 (  14.34%)
   displ. norm   :     0.7785464 α      lambda       -0.8386092E-02
   maximum displ.:     0.5379713 α      in ANC's #16, #13, #22, ...

........................................................................
.............................. CYCLE   10 ..............................
........................................................................
   1   -137.4817336 -0.137482E+03  0.199E-01    1.23       0.0  T
   2   -137.4817448 -0.111534E-04  0.117E-01    1.23       1.0  T
   3   -137.4814916  0.253183E-03  0.460E-02    1.23       1.0  T
   4   -137.4817472 -0.255593E-03  0.107E-02    1.23       1.0  T
   5   -137.4817612 -0.140684E-04  0.308E-03    1.23       3.6  T
   6   -137.4817616 -0.378487E-06  0.213E-03    1.23       5.2  T
   7   -137.4817619 -0.282035E-06  0.111E-03    1.23      10.1  T
   8   -137.4817620 -0.937792E-07  0.460E-04    1.23      24.3  T
   9   -137.4817620 -0.246896E-07  0.156E-04    1.23      71.5  T
     SCC iter.                  ...        0 min,  0.088 sec
     gradient                   ...        0 min,  0.076 sec
 * total energy  :  -134.9251168 Eh     change       -0.6959637E-02 Eh
   gradient norm :     0.0203135 Eh/α   predicted    -0.6734598E-02 (  -3.23%)
   displ. norm   :     0.7723891 α      lambda       -0.6725818E-02
   maximum displ.:     0.5504694 α      in ANC's #16, #13, #9, ...

........................................................................
.............................. CYCLE   11 ..............................
........................................................................
   1   -137.4873426 -0.137487E+03  0.182E-01    1.24       0.0  T
   2   -137.4873568 -0.142483E-04  0.106E-01    1.24       1.0  T
   3   -137.4871579  0.198943E-03  0.374E-02    1.24       1.0  T
   4   -137.4873526 -0.194709E-03  0.116E-02    1.24       1.0  T
   5   -137.4873703 -0.177395E-04  0.306E-03    1.24       3.6  T
   6   -137.4873706 -0.289761E-06  0.206E-03    1.24       5.4  T
   7   -137.4873708 -0.249032E-06  0.996E-04    1.24      11.2  T
   8   -137.4873709 -0.673325E-07  0.424E-04    1.24      26.3  T
     SCC iter.                  ...        0 min,  0.078 sec
     gradient                   ...        0 min,  0.076 sec
 * total energy  :  -134.9308259 Eh     change       -0.5709131E-02 Eh
   gradient norm :     0.0190125 Eh/α   predicted    -0.5369177E-02 (  -5.95%)
   displ. norm   :     0.7910801 α      lambda       -0.6070906E-02
   maximum displ.:     0.5316026 α      in ANC's #16, #13, #9, ...

........................................................................
.............................. CYCLE   12 ..............................
........................................................................
   1   -137.4920797 -0.137492E+03  0.198E-01    1.24       0.0  T
   2   -137.4920913 -0.116129E-04  0.116E-01    1.24       1.0  T
   3   -137.4919646  0.126759E-03  0.317E-02    1.24       1.0  T
   4   -137.4920905 -0.125897E-03  0.921E-03    1.24       1.2  T
   5   -137.4921014 -0.109156E-04  0.257E-03    1.24       4.4  T
   6   -137.4921015 -0.108852E-06  0.168E-03    1.24       6.6  T
   7   -137.4921017 -0.164937E-06  0.771E-04    1.24      14.5  T
   8   -137.4921017 -0.676357E-07  0.349E-04    1.24      32.0  T
     SCC iter.                  ...        0 min,  0.080 sec
     gradient                   ...        0 min,  0.076 sec
 * total energy  :  -134.9358508 Eh     change       -0.5024824E-02 Eh
   gradient norm :     0.0205682 Eh/α   predicted    -0.4935066E-02 (  -1.79%)
   displ. norm   :     0.7744552 α      lambda       -0.5106376E-02
   maximum displ.:     0.5230994 α      in ANC's #16, #13, #9, ...

........................................................................
.............................. CYCLE   13 ..............................
........................................................................
   1   -137.4935078 -0.137494E+03  0.200E-01    1.24       0.0  T
   2   -137.4935190 -0.112336E-04  0.117E-01    1.24       1.0  T
   3   -137.4934733  0.456703E-04  0.187E-02    1.24       1.0  T
   4   -137.4935186 -0.452717E-04  0.724E-03    1.24       1.5  T
   5   -137.4935253 -0.669199E-05  0.261E-03    1.24       4.3  T
   6   -137.4935255 -0.212410E-06  0.144E-03    1.24       7.8  T
   7   -137.4935256 -0.110690E-06  0.593E-04    1.24      18.9  T
   8   -137.4935257 -0.309499E-07  0.212E-04    1.24      52.7  T
     SCC iter.                  ...        0 min,  0.078 sec
     gradient                   ...        0 min,  0.076 sec
 * total energy  :  -134.9400514 Eh     change       -0.4200637E-02 Eh
   gradient norm :     0.0165487 Eh/α   predicted    -0.4084542E-02 (  -2.76%)
   displ. norm   :     0.7420168 α      lambda       -0.4095063E-02
   maximum displ.:     0.4236462 α      in ANC's #16, #13, #9, ...

........................................................................
.............................. CYCLE   14 ..............................
........................................................................
   1   -137.5037394 -0.137504E+03  0.198E-01    1.24       0.0  T
   2   -137.5037501 -0.106767E-04  0.116E-01    1.24       1.0  T
   3   -137.5036592  0.908520E-04  0.287E-02    1.24       1.0  T
   4   -137.5037507 -0.914730E-04  0.860E-03    1.24       1.3  T
   5   -137.5037584 -0.768688E-05  0.287E-03    1.24       3.9  T
   6   -137.5037586 -0.188881E-06  0.180E-03    1.24       6.2  T
   7   -137.5037588 -0.218186E-06  0.101E-03    1.24      11.1  T
   8   -137.5037589 -0.120853E-06  0.254E-04    1.24      44.0  T
   9   -137.5037589 -0.457698E-08  0.116E-04    1.24      96.1  T
     SCC iter.                  ...        0 min,  0.088 sec
     gradient                   ...        0 min,  0.076 sec
 * total energy  :  -134.9433251 Eh     change       -0.3273747E-02 Eh
   gradient norm :     0.0175343 Eh/α   predicted    -0.3174887E-02 (  -3.02%)
   displ. norm   :     0.7477652 α      lambda       -0.3429988E-02
   maximum displ.:     0.4388831 α      in ANC's #16, #13, #9, ...

........................................................................
.............................. CYCLE   15 ..............................
........................................................................
   1   -137.4990895 -0.137499E+03  0.195E-01    1.25       0.0  T
   2   -137.4991004 -0.108778E-04  0.114E-01    1.25       1.0  T
   3   -137.4990274  0.729668E-04  0.267E-02    1.25       1.0  T
   4   -137.4991056 -0.781550E-04  0.585E-03    1.25       1.9  T
   5   -137.4991086 -0.301125E-05  0.244E-03    1.25       4.6  T
   6   -137.4991087 -0.105878E-06  0.150E-03    1.25       7.5  T
   7   -137.4991088 -0.912071E-07  0.894E-04    1.25      12.5  T
   8   -137.4991089 -0.105608E-06  0.232E-04    1.25      48.1  T
     SCC iter.                  ...        0 min,  0.078 sec
     gradient                   ...        0 min,  0.076 sec
 * total energy  :  -134.9456111 Eh     change       -0.2285928E-02 Eh
   gradient norm :     0.0199282 Eh/α   predicted    -0.2673947E-02 (  16.97%)
   displ. norm   :     0.5958925 α      lambda       -0.2677779E-02
   maximum displ.:     0.3197557 α      in ANC's #16, #9, #13, ...

........................................................................
.............................. CYCLE   16 ..............................
........................................................................
   1   -137.5089652 -0.137509E+03  0.158E-01    1.25       0.0  T
   2   -137.5089758 -0.105784E-04  0.931E-02    1.25       1.0  T
   3   -137.5089487  0.271170E-04  0.164E-02    1.25       1.0  T
   4   -137.5089774 -0.286643E-04  0.532E-03    1.25       2.1  T
   5   -137.5089797 -0.235292E-05  0.273E-03    1.25       4.1  T
   6   -137.5089803 -0.581932E-06  0.127E-03    1.25       8.8  T
   7   -137.5089803 -0.666824E-08  0.828E-04    1.25      13.5  T
   8   -137.5089804 -0.634580E-07  0.211E-04    1.25      53.1  T
     SCC iter.                  ...        0 min,  0.079 sec
     gradient                   ...        0 min,  0.076 sec
 * total energy  :  -134.9470952 Eh     change       -0.1484160E-02 Eh
   gradient norm :     0.0216019 Eh/α   predicted    -0.1814317E-02 (  22.25%)
   displ. norm   :     0.5299019 α      lambda       -0.2155117E-02
   maximum displ.:     0.3260840 α      in ANC's #9, #13, #16, ...

........................................................................
.............................. CYCLE   17 ..............................
........................................................................
   1   -137.5163089 -0.137516E+03  0.139E-01    1.25       0.0  T
   2   -137.5163162 -0.732619E-05  0.812E-02    1.25       1.0  T
   3   -137.5162111  0.105080E-03  0.280E-02    1.25       1.0  T
   4   -137.5163159 -0.104790E-03  0.842E-03    1.25       1.3  T
   5   -137.5163236 -0.773105E-05  0.259E-03    1.25       4.3  T
   6   -137.5163238 -0.184031E-06  0.183E-03    1.25       6.1  T
   7   -137.5163241 -0.241475E-06  0.640E-04    1.25      17.5  T
   8   -137.5163241 -0.256402E-07  0.251E-04    1.25      44.6  T
     SCC iter.                  ...        0 min,  0.078 sec
     gradient                   ...        0 min,  0.076 sec
 * total energy  :  -134.9480029 Eh     change       -0.9076325E-03 Eh
   gradient norm :     0.0206795 Eh/α   predicted    -0.1380134E-02 (  52.06%)
   displ. norm   :     0.3847772 α      lambda       -0.1461125E-02
   maximum displ.:     0.2088778 α      in ANC's #16, #9, #13, ...

........................................................................
.............................. CYCLE   18 ..............................
........................................................................
   1   -137.5111306 -0.137511E+03  0.100E-01    1.25       0.0  T
   2   -137.5111333 -0.268348E-05  0.584E-02    1.25       1.0  T
   3   -137.5110545  0.787707E-04  0.238E-02    1.25       1.0  T
   4   -137.5111339 -0.793394E-04  0.670E-03    1.25       1.7  T
   5   -137.5111384 -0.453339E-05  0.186E-03    1.25       6.0  T
   6   -137.5111385 -0.115989E-06  0.121E-03    1.25       9.2  T
   7   -137.5111386 -0.714347E-07  0.445E-04    1.25      25.1  T
   8   -137.5111386 -0.172040E-07  0.141E-04    1.25      79.3  T
     SCC iter.                  ...        0 min,  0.078 sec
     gradient                   ...        0 min,  0.076 sec
 * total energy  :  -134.9487510 Eh     change       -0.7481506E-03 Eh
   gradient norm :     0.0183054 Eh/α   predicted    -0.8387264E-03 (  12.11%)
   displ. norm   :     0.3146806 α      lambda       -0.1251980E-02
   maximum displ.:     0.1728091 α      in ANC's #9, #5, #16, ...

........................................................................
.............................. CYCLE   19 ..............................
........................................................................
   1   -137.5194571 -0.137519E+03  0.842E-02    1.25       0.0  T
   2   -137.5194608 -0.371249E-05  0.496E-02    1.25       1.0  T
   3   -137.5193878  0.730201E-04  0.229E-02    1.25       1.0  T
   4   -137.5194617 -0.738803E-04  0.619E-03    1.25       1.8  T
   5   -137.5194664 -0.468482E-05  0.184E-03    1.25       6.1  T
   6   -137.5194664 -0.700296E-07  0.135E-03    1.25       8.3  T
   7   -137.5194666 -0.110919E-06  0.591E-04    1.25      18.9  T
   8   -137.5194666 -0.264875E-07  0.215E-04    1.25      52.1  T
     SCC iter.                  ...        0 min,  0.078 sec
     gradient                   ...        0 min,  0.076 sec
 * total energy  :  -134.9491409 Eh     change       -0.3898559E-03 Eh
   gradient norm :     0.0190410 Eh/α   predicted    -0.6879781E-03 (  76.47%)
   displ. norm   :     0.3457448 α      lambda       -0.1305461E-02
   maximum displ.:     0.2599676 α      in ANC's #9, #5, #13, ...

........................................................................
.............................. CYCLE   20 ..............................
........................................................................
   1   -137.5180056 -0.137518E+03  0.877E-02    1.25       0.0  T
   2   -137.5180079 -0.229003E-05  0.516E-02    1.25       1.0  T
   3   -137.5179705  0.373955E-04  0.180E-02    1.25       1.0  T
   4   -137.5180095 -0.389758E-04  0.400E-03    1.25       2.8  T
   5   -137.5180109 -0.148525E-05  0.154E-03    1.25       7.3  T
   6   -137.5180110 -0.268604E-07  0.114E-03    1.25       9.8  T
   7   -137.5180110 -0.708122E-07  0.484E-04    1.25      23.1  T
   8   -137.5180111 -0.218217E-07  0.155E-04    1.25      72.2  T
     SCC iter.                  ...        0 min,  0.078 sec
     gradient                   ...        0 min,  0.076 sec
 * total energy  :  -134.9498366 Eh     change       -0.6957099E-03 Eh
   gradient norm :     0.0164214 Eh/α   predicted    -0.7307573E-03 (   5.04%)
   displ. norm   :     0.3474028 α      lambda       -0.1036696E-02
   maximum displ.:     0.2599066 α      in ANC's #9, #5, #118, ...
 * RMSD in coord.:     1.1829214 α      energy gain  -0.2691539E+00 Eh

generating ANC from model Hessian ...
Using Lindh-Hessian (1995)
 Shifting diagonal of input Hessian by    9.9921291953442466E-003
 Lowest  eigenvalues of input Hessian
    0.000000    0.000000    0.000000    0.000000    0.000000    0.000000
    0.010000    0.010008    0.010013    0.010056    0.010232    0.010518
    0.010854    0.010890    0.010949    0.011287    0.011417    0.011927
 Highest eigenvalues
    2.235756    2.245028    2.258902    2.271447    2.689835    3.027667


........................................................................
.............................. CYCLE   21 ..............................
........................................................................
   1   -137.5218567 -0.137522E+03  0.798E-02    1.24       0.0  T
   2   -137.5218597 -0.292515E-05  0.474E-02    1.24       1.0  T
   3   -137.5218161  0.436090E-04  0.186E-02    1.24       1.0  T
   4   -137.5218578 -0.417774E-04  0.666E-03    1.24       1.7  T
   5   -137.5218624 -0.457580E-05  0.193E-03    1.24       5.8  T
   6   -137.5218627 -0.236941E-06  0.978E-04    1.24      11.4  T
   7   -137.5218627 -0.442922E-07  0.491E-04    1.24      22.8  T
     SCC iter.                  ...        0 min,  0.068 sec
     gradient                   ...        0 min,  0.076 sec
 * total energy  :  -134.9502167 Eh     change       -0.3801063E-03 Eh
   gradient norm :     0.0216268 Eh/α   predicted     0.0000000E+00 (-100.00%)
   displ. norm   :     0.1674188 α      lambda       -0.8381724E-03
   maximum displ.:     0.1147430 α      in ANC's #8, #16, #15, ...

........................................................................
.............................. CYCLE   22 ..............................
........................................................................
   1   -137.5204048 -0.137520E+03  0.468E-02    1.24       0.0  T
   2   -137.5204060 -0.121021E-05  0.278E-02    1.24       1.0  T
   3   -137.5203967  0.939051E-05  0.761E-03    1.24       1.5  T
   4   -137.5204054 -0.872506E-05  0.327E-03    1.24       3.4  T
   5   -137.5204069 -0.148486E-05  0.102E-03    1.24      10.9  T
   6   -137.5204069 -0.426873E-07  0.576E-04    1.24      19.4  T
   7   -137.5204069 -0.109408E-07  0.321E-04    1.24      34.9  T
     SCC iter.                  ...        0 min,  0.069 sec
     gradient                   ...        0 min,  0.076 sec
 * total energy  :  -134.9508382 Eh     change       -0.6215118E-03 Eh
   gradient norm :     0.0070006 Eh/α   predicted    -0.4308465E-03 ( -30.68%)
   displ. norm   :     0.3335320 α      lambda       -0.7824773E-03
   maximum displ.:     0.2110782 α      in ANC's #8, #16, #9, ...

........................................................................
.............................. CYCLE   23 ..............................
........................................................................
   1   -137.5178812 -0.137518E+03  0.960E-02    1.24       0.0  T
   2   -137.5178833 -0.215274E-05  0.568E-02    1.24       1.0  T
   3   -137.5178690  0.143447E-04  0.107E-02    1.24       1.0  T
   4   -137.5178831 -0.141672E-04  0.369E-03    1.24       3.0  T
   5   -137.5178847 -0.152756E-05  0.145E-03    1.24       7.7  T
   6   -137.5178848 -0.788626E-07  0.831E-04    1.24      13.5  T
   7   -137.5178848 -0.114716E-07  0.471E-04    1.24      23.7  T
     SCC iter.                  ...        0 min,  0.069 sec
     gradient                   ...        0 min,  0.076 sec
 * total energy  :  -134.9512559 Eh     change       -0.4177139E-03 Eh
   gradient norm :     0.0104463 Eh/α   predicted    -0.4347619E-03 (   4.08%)
   displ. norm   :     0.4353842 α      lambda       -0.9212457E-03
   maximum displ.:     0.3229571 α      in ANC's #8, #16, #15, ...

........................................................................
.............................. CYCLE   24 ..............................
........................................................................
   1   -137.5142482 -0.137514E+03  0.130E-01    1.24       0.0  T
   2   -137.5142505 -0.227954E-05  0.776E-02    1.24       1.0  T
   3   -137.5142195  0.309733E-04  0.164E-02    1.24       1.0  T
   4   -137.5142515 -0.319748E-04  0.418E-03    1.24       2.7  T
   5   -137.5142528 -0.130374E-05  0.199E-03    1.24       5.6  T
   6   -137.5142529 -0.672330E-07  0.129E-03    1.24       8.7  T
   7   -137.5142529 -0.841824E-07  0.655E-04    1.24      17.1  T
   8   -137.5142530 -0.444235E-07  0.176E-04    1.24      63.7  T
     SCC iter.                  ...        0 min,  0.078 sec
     gradient                   ...        0 min,  0.076 sec
 * total energy  :  -134.9514803 Eh     change       -0.2244159E-03 Eh
   gradient norm :     0.0207593 Eh/α   predicted    -0.5479417E-03 ( 144.16%)
   displ. norm   :     0.2515066 α      lambda       -0.8927953E-03
   maximum displ.:     0.1425280 α      in ANC's #8, #5, #9, ...

........................................................................
.............................. CYCLE   25 ..............................
........................................................................
   1   -137.5157018 -0.137516E+03  0.122E-01    1.24       0.0  T
   2   -137.5157004  0.143505E-05  0.731E-02    1.24       1.0  T
   3   -137.5155816  0.118740E-03  0.325E-02    1.24       1.0  T
   4   -137.5157044 -0.122732E-03  0.340E-03    1.24       3.3  T
   5   -137.5157052 -0.868505E-06  0.159E-03    1.24       7.0  T
   6   -137.5157053 -0.618122E-07  0.827E-04    1.24      13.5  T
   7   -137.5157053 -0.434819E-07  0.194E-04    1.24      57.6  T
     SCC iter.                  ...        0 min,  0.069 sec
     gradient                   ...        0 min,  0.076 sec
 * total energy  :  -134.9519048 Eh     change       -0.4245197E-03 Eh
   gradient norm :     0.0151516 Eh/α   predicted    -0.4746348E-03 (  11.81%)
   displ. norm   :     0.2509269 α      lambda       -0.9205205E-03
   maximum displ.:     0.1682129 α      in ANC's #8, #9, #5, ...

........................................................................
.............................. CYCLE   26 ..............................
........................................................................
   1   -137.5209336 -0.137521E+03  0.113E-01    1.24       0.0  T
   2   -137.5209349 -0.135819E-05  0.671E-02    1.24       1.0  T
   3   -137.5209095  0.253910E-04  0.152E-02    1.24       1.0  T
   4   -137.5209358 -0.262190E-04  0.322E-03    1.24       3.5  T
   5   -137.5209366 -0.857043E-06  0.152E-03    1.24       7.3  T
   6   -137.5209368 -0.128615E-06  0.911E-04    1.24      12.3  T
   7   -137.5209368 -0.569278E-07  0.337E-04    1.24      33.2  T
     SCC iter.                  ...        0 min,  0.068 sec
     gradient                   ...        0 min,  0.076 sec
 * total energy  :  -134.9524027 Eh     change       -0.4978932E-03 Eh
   gradient norm :     0.0051276 Eh/α   predicted    -0.4892415E-03 (  -1.74%)
   displ. norm   :     0.4359227 α      lambda       -0.5036730E-03
   maximum displ.:     0.3457325 α      in ANC's #8, #5, #16, ...

........................................................................
.............................. CYCLE   27 ..............................
........................................................................
   1   -137.5193596 -0.137519E+03  0.900E-02    1.23       0.0  T
   2   -137.5193605 -0.870698E-06  0.528E-02    1.23       1.0  T
   3   -137.5193530  0.753863E-05  0.768E-03    1.23       1.5  T
   4   -137.5193611 -0.816123E-05  0.171E-03    1.23       6.5  T
   5   -137.5193613 -0.154736E-06  0.949E-04    1.23      11.8  T
   6   -137.5193613 -0.348794E-08  0.662E-04    1.23      16.9  T
     SCC iter.                  ...        0 min,  0.059 sec
     gradient                   ...        0 min,  0.076 sec
 * total energy  :  -134.9528206 Eh     change       -0.4178428E-03 Eh
   gradient norm :     0.0049529 Eh/α   predicted    -0.2996930E-03 ( -28.28%)
   displ. norm   :     0.3292612 α      lambda       -0.3607576E-03
   maximum displ.:     0.2642102 α      in ANC's #8, #5, #7, ...

........................................................................
.............................. CYCLE   28 ..............................
........................................................................
   1   -137.5211666 -0.137521E+03  0.681E-02    1.23       0.0  T
   2   -137.5211672 -0.591236E-06  0.400E-02    1.23       1.0  T
   3   -137.5211617  0.549246E-05  0.649E-03    1.23       1.7  T
   4   -137.5211675 -0.581999E-05  0.161E-03    1.23       6.9  T
   5   -137.5211677 -0.180816E-06  0.894E-04    1.23      12.5  T
   6   -137.5211677 -0.250155E-07  0.533E-04    1.23      21.0  T
     SCC iter.                  ...        0 min,  0.059 sec
     gradient                   ...        0 min,  0.076 sec
 * total energy  :  -134.9531178 Eh     change       -0.2972685E-03 Eh
   gradient norm :     0.0034629 Eh/α   predicted    -0.1999359E-03 ( -32.74%)
   displ. norm   :     0.4234678 α      lambda       -0.3445612E-03
   maximum displ.:     0.3327264 α      in ANC's #8, #5, #7, ...

........................................................................
.............................. CYCLE   29 ..............................
........................................................................
   1   -137.5217444 -0.137522E+03  0.797E-02    1.23       0.0  T
   2   -137.5217453 -0.907488E-06  0.467E-02    1.23       1.0  T
   3   -137.5217388  0.649004E-05  0.696E-03    1.23       1.6  T
   4   -137.5217457 -0.685416E-05  0.198E-03    1.23       5.7  T
   5   -137.5217460 -0.299218E-06  0.105E-03    1.23      10.7  T
   6   -137.5217460 -0.499684E-07  0.479E-04    1.23      23.4  T
   7   -137.5217460 -0.114770E-07  0.214E-04    1.23      52.2  T
     SCC iter.                  ...        0 min,  0.069 sec
     gradient                   ...        0 min,  0.076 sec
 * total energy  :  -134.9534153 Eh     change       -0.2974238E-03 Eh
   gradient norm :     0.0029465 Eh/α   predicted    -0.2031751E-03 ( -31.69%)
   displ. norm   :     0.5991736 α      lambda       -0.4156360E-03
   maximum displ.:     0.4693449 α      in ANC's #8, #5, #7, ...

........................................................................
.............................. CYCLE   30 ..............................
........................................................................
   1   -137.5209602 -0.137521E+03  0.109E-01    1.22       0.0  T
   2   -137.5209621 -0.190898E-05  0.636E-02    1.22       1.0  T
   3   -137.5209557  0.642307E-05  0.749E-03    1.22       1.5  T
   4   -137.5209627 -0.709354E-05  0.242E-03    1.22       4.6  T
   5   -137.5209631 -0.323448E-06  0.158E-03    1.22       7.1  T
   6   -137.5209632 -0.162900E-06  0.591E-04    1.22      18.9  T
   7   -137.5209633 -0.227876E-07  0.212E-04    1.22      52.8  T
     SCC iter.                  ...        0 min,  0.069 sec
     gradient                   ...        0 min,  0.076 sec
 * total energy  :  -134.9537583 Eh     change       -0.3430159E-03 Eh
   gradient norm :     0.0038164 Eh/α   predicted    -0.2824266E-03 ( -17.66%)
   displ. norm   :     0.6471968 α      lambda       -0.3734126E-03
   maximum displ.:     0.5017704 α      in ANC's #8, #5, #7, ...

........................................................................
.............................. CYCLE   31 ..............................
........................................................................
   1   -137.5208128 -0.137521E+03  0.115E-01    1.21       0.0  T
   2   -137.5208153 -0.250096E-05  0.674E-02    1.21       1.0  T
   3   -137.5208099  0.540880E-05  0.744E-03    1.21       1.5  T
   4   -137.5208164 -0.648657E-05  0.219E-03    1.21       5.1  T
   5   -137.5208165 -0.500182E-07  0.167E-03    1.21       6.7  T
   6   -137.5208167 -0.218943E-06  0.739E-04    1.21      15.1  T
   7   -137.5208167 -0.493117E-07  0.231E-04    1.21      48.4  T
     SCC iter.                  ...        0 min,  0.069 sec
     gradient                   ...        0 min,  0.076 sec
 * total energy  :  -134.9540492 Eh     change       -0.2909200E-03 Eh
   gradient norm :     0.0045080 Eh/α   predicted    -0.2649124E-03 (  -8.94%)
   displ. norm   :     0.5579877 α      lambda       -0.2638217E-03
   maximum displ.:     0.4187635 α      in ANC's #8, #5, #7, ...

........................................................................
.............................. CYCLE   32 ..............................
........................................................................
   1   -137.5209728 -0.137521E+03  0.970E-02    1.21       0.0  T
   2   -137.5209749 -0.206404E-05  0.568E-02    1.21       1.0  T
   3   -137.5209691  0.575044E-05  0.757E-03    1.21       1.5  T
   4   -137.5209757 -0.661719E-05  0.213E-03    1.21       5.3  T
   5   -137.5209758 -0.119872E-06  0.143E-03    1.21       7.8  T
   6   -137.5209760 -0.180669E-06  0.502E-04    1.21      22.3  T
   7   -137.5209760 -0.246059E-07  0.167E-04    1.21      66.9  T
     SCC iter.                  ...        0 min,  0.068 sec
     gradient                   ...        0 min,  0.076 sec
 * total energy  :  -134.9542484 Eh     change       -0.1991622E-03 Eh
   gradient norm :     0.0037155 Eh/α   predicted    -0.1729832E-03 ( -13.14%)
   displ. norm   :     0.4398108 α      lambda       -0.1687821E-03
   maximum displ.:     0.3084930 α      in ANC's #8, #5, #7, ...

........................................................................
.............................. CYCLE   33 ..............................
........................................................................
   1   -137.5228265 -0.137523E+03  0.775E-02    1.21       0.0  T
   2   -137.5228280 -0.142272E-05  0.454E-02    1.21       1.0  T
   3   -137.5228213  0.666094E-05  0.724E-03    1.21       1.5  T
   4   -137.5228284 -0.708343E-05  0.225E-03    1.21       5.0  T
   5   -137.5228288 -0.359174E-06  0.131E-03    1.21       8.5  T
   6   -137.5228288 -0.818189E-07  0.654E-04    1.21      17.1  T
   7   -137.5228289 -0.307717E-07  0.231E-04    1.21      48.4  T
     SCC iter.                  ...        0 min,  0.068 sec
     gradient                   ...        0 min,  0.076 sec
 * total energy  :  -134.9543680 Eh     change       -0.1196784E-03 Eh
   gradient norm :     0.0026540 Eh/α   predicted    -0.1007188E-03 ( -15.84%)
   displ. norm   :     0.3216416 α      lambda       -0.7967230E-04
   maximum displ.:     0.2152083 α      in ANC's #8, #5, #16, ...

........................................................................
.............................. CYCLE   34 ..............................
........................................................................
   1   -137.5227186 -0.137523E+03  0.552E-02    1.20       0.0  T
   2   -137.5227193 -0.745396E-06  0.322E-02    1.20       1.0  T
   3   -137.5227153  0.400622E-05  0.537E-03    1.20       2.1  T
   4   -137.5227196 -0.422885E-05  0.172E-03    1.20       6.5  T
   5   -137.5227198 -0.216118E-06  0.954E-04    1.20      11.7  T
   6   -137.5227198 -0.359336E-07  0.485E-04    1.20      23.0  T
     SCC iter.                  ...        0 min,  0.059 sec
     gradient                   ...        0 min,  0.076 sec
 * total energy  :  -134.9544215 Eh     change       -0.5342481E-04 Eh
   gradient norm :     0.0019218 Eh/α   predicted    -0.4395807E-04 ( -17.72%)
   displ. norm   :     0.2510495 α      lambda       -0.3785679E-04
   maximum displ.:     0.1724122 α      in ANC's #5, #8, #16, ...

........................................................................
.............................. CYCLE   35 ..............................
........................................................................
   1   -137.5251865 -0.137525E+03  0.471E-02    1.20       0.0  T
   2   -137.5251870 -0.552277E-06  0.276E-02    1.20       1.0  T
   3   -137.5251813  0.573886E-05  0.627E-03    1.20       1.8  T
   4   -137.5251870 -0.573974E-05  0.217E-03    1.20       5.2  T
   5   -137.5251875 -0.470526E-06  0.724E-04    1.20      15.4  T
   6   -137.5251875 -0.520120E-08  0.472E-04    1.20      23.7  T
     SCC iter.                  ...        0 min,  0.059 sec
     gradient                   ...        0 min,  0.076 sec
 * total energy  :  -134.9544509 Eh     change       -0.2945047E-04 Eh
   gradient norm :     0.0023639 Eh/α   predicted    -0.1946166E-04 ( -33.92%)
   displ. norm   :     0.0922072 α      lambda       -0.2638305E-04
   maximum displ.:     0.0739087 α      in ANC's #5, #8, #6, ...

........................................................................
.............................. CYCLE   36 ..............................
........................................................................
   1   -137.5235914 -0.137524E+03  0.153E-02    1.20       0.0  T
   2   -137.5235915 -0.839472E-07  0.893E-03    1.20       1.3  T
   3   -137.5235903  0.119901E-05  0.307E-03    1.20       3.6  T
   4   -137.5235915 -0.120512E-05  0.864E-04    1.20      12.9  T
   5   -137.5235916 -0.855296E-07  0.272E-04    1.20      41.0  T
   6   -137.5235916 -0.210159E-08  0.183E-04    1.20      61.0  T
     SCC iter.                  ...        0 min,  0.059 sec
     gradient                   ...        0 min,  0.076 sec
 * total energy  :  -134.9544710 Eh     change       -0.2010190E-04 Eh
   gradient norm :     0.0016545 Eh/α   predicted    -0.1330449E-04 ( -33.81%)
   displ. norm   :     0.2530351 α      lambda       -0.5483482E-04
   maximum displ.:     0.1535617 α      in ANC's #5, #7, #9, ...

........................................................................
.............................. CYCLE   37 ..............................
........................................................................
   1   -137.5222858 -0.137522E+03  0.517E-02    1.20       0.0  T
   2   -137.5222864 -0.556438E-06  0.303E-02    1.20       1.0  T
   3   -137.5222766  0.973690E-05  0.882E-03    1.20       1.3  T
   4   -137.5222866 -0.999626E-05  0.204E-03    1.20       5.5  T
   5   -137.5222871 -0.457723E-06  0.703E-04    1.20      15.9  T
   6   -137.5222871 -0.241806E-07  0.438E-04    1.20      25.6  T
     SCC iter.                  ...        0 min,  0.059 sec
     gradient                   ...        0 min,  0.076 sec
 * total energy  :  -134.9545196 Eh     change       -0.4855555E-04 Eh
   gradient norm :     0.0031825 Eh/α   predicted    -0.2819993E-04 ( -41.92%)
   displ. norm   :     0.1038807 α      lambda       -0.2743360E-04
   maximum displ.:     0.0652676 α      in ANC's #5, #8, #7, ...

........................................................................
.............................. CYCLE   38 ..............................
........................................................................
   1   -137.5221804 -0.137522E+03  0.204E-02    1.20       0.0  T
   2   -137.5221805 -0.693447E-07  0.120E-02    1.20       1.0  T
   3   -137.5221800  0.494334E-06  0.218E-03    1.20       5.1  T
   4   -137.5221805 -0.501963E-06  0.652E-04    1.20      17.1  T
   5   -137.5221805 -0.421790E-07  0.257E-04    1.20      43.5  T
     SCC iter.                  ...        0 min,  0.049 sec
     gradient                   ...        0 min,  0.076 sec
 * total energy  :  -134.9545429 Eh     change       -0.2329249E-04 Eh
   gradient norm :     0.0027579 Eh/α   predicted    -0.1386792E-04 ( -40.46%)
   displ. norm   :     0.2446390 α      lambda       -0.5971825E-04
   maximum displ.:     0.1564298 α      in ANC's #5, #8, #7, ...

........................................................................
.............................. CYCLE   39 ..............................
........................................................................
   1   -137.5225391 -0.137523E+03  0.445E-02    1.21       0.0  T
   2   -137.5225395 -0.403584E-06  0.260E-02    1.21       1.0  T
   3   -137.5225376  0.189268E-05  0.428E-03    1.21       2.6  T
   4   -137.5225397 -0.210083E-05  0.928E-04    1.21      12.0  T
   5   -137.5225398 -0.588462E-07  0.526E-04    1.21      21.3  T
   6   -137.5225398 -0.101341E-07  0.317E-04    1.21      35.2  T
     SCC iter.                  ...        0 min,  0.059 sec
     gradient                   ...        0 min,  0.076 sec
 * total energy  :  -134.9545839 Eh     change       -0.4107561E-04 Eh
   gradient norm :     0.0017412 Eh/α   predicted    -0.3164838E-04 ( -22.95%)
   displ. norm   :     0.2121413 α      lambda       -0.2486194E-04
   maximum displ.:     0.1683030 α      in ANC's #5, #9, #7, ...

........................................................................
.............................. CYCLE   40 ..............................
........................................................................
   1   -137.5227165 -0.137523E+03  0.332E-02    1.21       0.0  T
   2   -137.5227168 -0.292331E-06  0.194E-02    1.21       1.0  T
   3   -137.5227144  0.239100E-05  0.468E-03    1.21       2.4  T
   4   -137.5227169 -0.246197E-05  0.130E-03    1.21       8.6  T
   5   -137.5227171 -0.163639E-06  0.559E-04    1.21      20.0  T
   6   -137.5227171 -0.197479E-07  0.289E-04    1.21      38.7  T
     SCC iter.                  ...        0 min,  0.059 sec
     gradient                   ...        0 min,  0.076 sec
 * total energy  :  -134.9546094 Eh     change       -0.2545120E-04 Eh
   gradient norm :     0.0018278 Eh/α   predicted    -0.1268039E-04 ( -50.18%)
   displ. norm   :     0.1496491 α      lambda       -0.1765860E-04
   maximum displ.:     0.1297668 α      in ANC's #5, #9, #8, ...

........................................................................
.............................. CYCLE   41 ..............................
........................................................................
   1   -137.5228800 -0.137523E+03  0.224E-02    1.21       0.0  T
   2   -137.5228801 -0.892781E-07  0.131E-02    1.21       1.0  T
   3   -137.5228787  0.138916E-05  0.318E-03    1.21       3.5  T
   4   -137.5228802 -0.145257E-05  0.661E-04    1.21      16.9  T
   5   -137.5228802 -0.475716E-07  0.292E-04    1.21      38.3  T
   6   -137.5228802 -0.478170E-08  0.174E-04    1.21      64.4  T
     SCC iter.                  ...        0 min,  0.059 sec
     gradient                   ...        0 min,  0.076 sec
 * total energy  :  -134.9546302 Eh     change       -0.2079702E-04 Eh
   gradient norm :     0.0016519 Eh/α   predicted    -0.8922057E-05 ( -57.10%)
   displ. norm   :     0.2148551 α      lambda       -0.2192521E-04
   maximum displ.:     0.1834221 α      in ANC's #5, #8, #10, ...

........................................................................
.............................. CYCLE   42 ..............................
........................................................................
   1   -137.5226816 -0.137523E+03  0.327E-02    1.21       0.0  T
   2   -137.5226818 -0.175992E-06  0.192E-02    1.21       1.0  T
   3   -137.5226784  0.345565E-05  0.491E-03    1.21       2.3  T
   4   -137.5226820 -0.359309E-05  0.102E-03    1.21      10.9  T
   5   -137.5226821 -0.118828E-06  0.418E-04    1.21      26.7  T
   6   -137.5226821 -0.923208E-08  0.253E-04    1.21      44.2  T
     SCC iter.                  ...        0 min,  0.060 sec
     gradient                   ...        0 min,  0.076 sec
 * total energy  :  -134.9546522 Eh     change       -0.2195759E-04 Eh
   gradient norm :     0.0016487 Eh/α   predicted    -0.1119186E-04 ( -49.03%)
   displ. norm   :     0.1780733 α      lambda       -0.1438499E-04
   maximum displ.:     0.1529695 α      in ANC's #5, #9, #2, ...
 * RMSD in coord.:     0.6084047 α      energy gain  -0.4815579E-02 Eh

generating ANC from model Hessian ...
Using Lindh-Hessian (1995)
 Shifting diagonal of input Hessian by    9.9889153571441278E-003
 Lowest  eigenvalues of input Hessian
    0.000000    0.000000    0.000000    0.000000    0.000000    0.000000
    0.010000    0.010005    0.010008    0.010057    0.010090    0.010597
    0.010842    0.010843    0.011245    0.011588    0.011689    0.012088
 Highest eigenvalues
    2.234041    2.247431    2.248513    2.272063    2.690520    3.027591


........................................................................
.............................. CYCLE   43 ..............................
........................................................................
   1   -137.5223447 -0.137522E+03  0.262E-02    1.21       0.0  T
   2   -137.5223448 -0.133464E-06  0.154E-02    1.21       1.0  T
   3   -137.5223439  0.893501E-06  0.285E-03    1.21       3.9  T
   4   -137.5223449 -0.979642E-06  0.589E-04    1.21      19.0  T
   5   -137.5223449 -0.206651E-07  0.313E-04    1.21      35.8  T
     SCC iter.                  ...        0 min,  0.049 sec
     gradient                   ...        0 min,  0.076 sec
 * total energy  :  -134.9546676 Eh     change       -0.1549664E-04 Eh
   gradient norm :     0.0015037 Eh/α   predicted     0.0000000E+00 (-100.00%)
   displ. norm   :     0.0244542 α      lambda       -0.6471442E-05
   maximum displ.:     0.0093042 α      in ANC's #6, #11, #5, ...

........................................................................
.............................. CYCLE   44 ..............................
........................................................................
   1   -137.5228415 -0.137523E+03  0.937E-03    1.21       0.0  T
   2   -137.5228415 -0.207102E-07  0.559E-03    1.21       2.0  T
   3   -137.5228407  0.743611E-06  0.242E-03    1.21       4.6  T
   4   -137.5228415 -0.760242E-06  0.564E-04    1.21      19.8  T
   5   -137.5228415 -0.290368E-07  0.205E-04    1.21      54.6  T
     SCC iter.                  ...        0 min,  0.049 sec
     gradient                   ...        0 min,  0.076 sec
 * total energy  :  -134.9546733 Eh     change       -0.5697738E-05 Eh
   gradient norm :     0.0009036 Eh/α   predicted    -0.3392344E-05 ( -40.46%)
   displ. norm   :     0.0890015 α      lambda       -0.1814788E-04
   maximum displ.:     0.0382739 α      in ANC's #9, #5, #11, ...

........................................................................
.............................. CYCLE   45 ..............................
........................................................................
   1   -137.5240393 -0.137524E+03  0.306E-02    1.21       0.0  T
   2   -137.5240395 -0.220975E-06  0.182E-02    1.21       1.0  T
   3   -137.5240339  0.562785E-05  0.621E-03    1.21       1.8  T
   4   -137.5240397 -0.576555E-05  0.153E-03    1.21       7.3  T
   5   -137.5240399 -0.233162E-06  0.586E-04    1.21      19.1  T
   6   -137.5240399 -0.160376E-07  0.374E-04    1.21      29.9  T
     SCC iter.                  ...        0 min,  0.059 sec
     gradient                   ...        0 min,  0.076 sec
 * total energy  :  -134.9546507 Eh     change        0.2269453E-04 Eh
   gradient norm :     0.0037136 Eh/α   predicted    -0.9108047E-05 (-140.13%)
   displ. norm   :     0.0235904 α      lambda       -0.4052504E-04
   maximum displ.:     0.0159482 α      in ANC's #9, #14, #12, ...

........................................................................
.............................. CYCLE   46 ..............................
........................................................................
   1   -137.5235209 -0.137524E+03  0.134E-02    1.21       0.0  T
   2   -137.5235210 -0.233198E-07  0.799E-03    1.21       1.4  T
   3   -137.5235200  0.977396E-06  0.263E-03    1.21       4.3  T
   4   -137.5235210 -0.101225E-05  0.498E-04    1.21      22.5  T
   5   -137.5235210 -0.247619E-07  0.168E-04    1.21      66.7  T
   6   -137.5235210 -0.985239E-09  0.107E-04    1.21     104.2  T
     SCC iter.                  ...        0 min,  0.059 sec
     gradient                   ...        0 min,  0.076 sec
 * total energy  :  -134.9546785 Eh     change       -0.2780629E-04 Eh
   gradient norm :     0.0017153 Eh/α   predicted    -0.2027498E-04 ( -27.08%)
   displ. norm   :     0.0246533 α      lambda       -0.1141232E-04
   maximum displ.:     0.0113455 α      in ANC's #9, #5, #7, ...

........................................................................
.............................. CYCLE   47 ..............................
........................................................................
   1   -137.5229349 -0.137523E+03  0.126E-02    1.21       0.0  T
   2   -137.5229349 -0.233273E-07  0.756E-03    1.21       1.5  T
   3   -137.5229336  0.130242E-05  0.303E-03    1.21       3.7  T
   4   -137.5229349 -0.132276E-05  0.682E-04    1.21      16.4  T
   5   -137.5229350 -0.503034E-07  0.207E-04    1.21      54.0  T
   6   -137.5229350 -0.254059E-08  0.122E-04    1.21      91.3  T
     SCC iter.                  ...        0 min,  0.059 sec
     gradient                   ...        0 min,  0.076 sec
 * total energy  :  -134.9546847 Eh     change       -0.6284151E-05 Eh
   gradient norm :     0.0006850 Eh/α   predicted    -0.5711781E-05 (  -9.11%)
   displ. norm   :     0.0239431 α      lambda       -0.2779323E-05
   maximum displ.:     0.0124134 α      in ANC's #5, #11, #7, ...

........................................................................
.............................. CYCLE   48 ..............................
........................................................................
   1   -137.5231343 -0.137523E+03  0.653E-03    1.21       0.0  T
   2   -137.5231343 -0.399652E-08  0.386E-03    1.21       2.9  T
   3   -137.5231341  0.153071E-06  0.104E-03    1.21      10.7  T
   4   -137.5231343 -0.162115E-06  0.157E-04    1.21      71.4  T
   5   -137.5231343 -0.455941E-09  0.111E-04    1.21     100.6  T
     SCC iter.                  ...        0 min,  0.049 sec
     gradient                   ...        0 min,  0.076 sec
 * total energy  :  -134.9546880 Eh     change       -0.3297011E-05 Eh
   gradient norm :     0.0004636 Eh/α   predicted    -0.1390985E-05 ( -57.81%)
   displ. norm   :     0.0754031 α      lambda       -0.5902152E-05
   maximum displ.:     0.0374595 α      in ANC's #5, #7, #11, ...

   *** GEOMETRY OPTIMIZATION CONVERGED AFTER 48 ITERATIONS ***

------------------------------------------------------------------------
 total energy gain   :        -0.2740054 Eh     -171.9410 kcal/mol
 total RMSD          :         1.4529595 a0        0.7689 Å
 total power (kW/mol):       -14.9875205 (step)  -87.4047 (real)
------------------------------------------------------------------------

 ANCopt (total)                0 d,  0 h,  0 min,  8.231 sec
 optimizer setup                ...        0 min,  0.000 sec (  0.001%)
 model hessian                  ...        0 min,  0.045 sec (  0.543%)
 ANC generation                 ...        0 min,  0.018 sec (  0.219%)
 coordinate transformation      ...        0 min,  0.003 sec (  0.031%)
 single point calculation       ...        0 min,  8.141 sec ( 98.912%)
 optimization log               ...        0 min,  0.011 sec (  0.128%)
 hessian update                 ...        0 min,  0.002 sec (  0.026%)
 rational function              ...        0 min,  0.009 sec (  0.112%)

================
 final structure:
================
80
 xtb: 6.4.1 (bd6e46d)
C         5.38814789648212    3.38895589572382    0.97605592288220
C         4.45798936652428    2.47678734850273    0.63282136470938
C         5.19188501453601    1.28288089641972    0.25270712389699
C         4.56525500713302    0.09415649486134   -0.17034277973032
C         5.25130477320169   -1.06770108722297   -0.55952780992290
C         4.68661227832215   -2.28915582558554   -1.01501192402064
C         5.71792019929913   -3.14042642117473   -1.28928163598372
C         6.93438746082909   -2.45840060688008   -1.00432424548381
N         6.60009617174181   -1.21190209295377   -0.56942533188716
C         8.21759657716210   -2.96831100238266   -1.13587243881116
C         9.41403155600039   -2.32576634586575   -0.84918800435245
C        10.70994839948259   -2.96908192284840   -1.01271202045018
C        11.63015646560794   -2.06147817010667   -0.63776150359294
C        10.88957679983209   -0.87048463667108   -0.25094996481512
N         9.56131606616681   -1.06574266438356   -0.39043272392322
C        11.49931460004636    0.29527024939461    0.19529447676355
C        10.83849582289269    1.45568598550346    0.56757079330022
C        11.40408943974222    2.68005037430207    1.02554691082438
C        10.37740042821473    3.54327399917496    1.26984073084062
C         9.15795902152822    2.86890053780108    0.96897525237243
N         9.48854341543278    1.61861749818596    0.55141725773011
C         7.87538729365972    3.38419565950436    1.08166632582141
C         6.67779758272562    2.74101921708430    0.80528865464776
N         6.51771375927843    1.47062595564617    0.36431225686840
H         5.25182345722149    4.39832373130433    1.31385165762387
H         3.38897776219223    2.56720251782323    0.62417329968791
H         3.63523835768565   -2.47649861098330   -1.11597206530683
H         5.65274231355769   -4.14712733312053   -1.65373241837992
H         7.24802962189367   -0.48504936386428   -0.28827172349114
H         8.29076427815417   -3.98457918629021   -1.49787406197343
H        10.85255876355554   -3.97289508362594   -1.36475866097578
H        12.69938637601695   -2.15051647917051   -0.61255166138612
H        12.57806390867935    0.29904152326355    0.25503859628186
H        12.45442773641709    2.86148350318978    1.14634254408390
H        10.44364737036754    4.55327887349112    1.62550642393519
H         8.84307796879236    0.89294475136492    0.26367481792829
H         7.80076902675859    4.40510510229349    1.43035779691109
C         3.16885270740733    0.05974418675878   -0.20016708772163
C         1.94934947976040    0.02874965670114   -0.20522947817354
C         0.61302662424708   -0.00196106100700   -0.20352952906090
C        -0.61065990618837   -0.03422490752069   -0.18923664707591
C        -1.94697055019506   -0.06232527843830   -0.17387532595034
C        -3.16631755639186   -0.09164403628080   -0.15086880279496
C       -10.68207981341676    2.56486499516143   -1.92403438341323
C       -11.61212795640235    1.77085442918224   -1.36218013843028
C       -10.88177831728590    0.73553177441480   -0.64714834981104
C       -11.50320856026596   -0.27940231968962    0.06957498777710
C       -10.85268456868502   -1.28900721126613    0.76184008409397
C       -11.43112485720783   -2.35401514103554    1.51020485751613
C       -10.41165597449274   -3.10852865862209    2.01041775812153
C        -9.18394211408542   -2.52437907277756    1.58149799387557
N        -9.50255398039239   -1.43361965103376    0.83612262372949
C        -7.90498422164691   -2.97960589801562    1.86470487026211
C        -6.70030255296420   -2.42324745661204    1.46014412890653
C        -5.41554746134979   -2.99640454166921    1.82498562111717
C        -4.47685977785531   -2.20280528882947    1.27344477038061
C        -5.20064341295636   -1.15399529174769    0.57724102460809
N        -6.52886362408139   -1.31248440448668    0.70469260876453
C        -4.56312722539741   -0.11369955373297   -0.12679707152125
C        -5.23819291532856    0.91024875220480   -0.81096528027056
C        -4.66060458118147    1.98258538693242   -1.54231716027165
C        -5.68349722546147    2.73001658074079   -2.05069528529620
C        -6.90763267819191    2.13089024273940   -1.64009123128573
N        -6.58610968708030    1.03795172113633   -0.89388213705086
C        -8.18664006065159    2.57410980166740   -1.94266797924407
C        -9.39062141182502    2.00844701922542   -1.54660149483475
N        -9.55000603618428    0.90900278940563   -0.78128262774828
H       -10.81539932530281    3.43904072109937   -2.53226888844967
H       -12.68196564398250    1.84484134373155   -1.40456062449532
H       -12.58346234029107   -0.28302995900820    0.08831903313809
H       -12.48468870931235   -2.50909882828453    1.63939715782727
H       -10.48780640549561   -3.98809584034947    2.61998735212598
H        -8.84882144854407   -0.80325349360665    0.38749522916452
H        -7.83991860577991   -3.87158582522541    2.47260275648194
H        -5.28792782300506   -3.88036468797037    2.41984453776883
H        -3.40798211497017   -2.28685313785967    1.31294168267046
H        -3.60670052361607    2.14717100009969   -1.65584824434437
H        -5.60788892778504    3.61391257457885   -2.65368309456027
H        -7.24255296352559    0.40028093222405   -0.45847295077442
H        -8.24981028982473    3.46270635536667   -2.55553549837513

 Bond Distances (Angstroems)
 ---------------------------
C1-C2=1.3472         C1-C23=1.4533        C1-H25=1.0731        C2-C1=1.3472         C2-C3=1.4521         C2-H26=1.0729        
C3-C2=1.4521         C3-C4=1.4088         C3-N24=1.3437        C4-C3=1.4088         C4-C5=1.4043         C4-C38=1.3971        
C5-C4=1.4043         C5-C6=1.4207         C5-N9=1.3565         C6-C5=1.4207         C6-C7=1.3651         C6-H27=1.0727        
C7-C6=1.3651         C7-C8=1.4234         C7-H28=1.0726        C8-C7=1.4234         C8-N9=1.3619         C8-C10=1.3871        
N9-C5=1.3565         N9-C8=1.3619         N9-H29=1.0135        C10-C8=1.3871        C10-C11=1.3880       C10-H30=1.0813       
C11-C10=1.3880       C11-C12=1.4560       C11-N15=1.3490       C12-C11=1.4560       C12-C13=1.3458       C12-H31=1.0733       
C13-C12=1.3458       C13-C14=1.4548       C13-H32=1.0732       C14-C13=1.4548       C14-N15=1.3498       C14-C16=1.3892       
N15-C11=1.3490       N15-C14=1.3498       C16-C14=1.3892       C16-C17=1.3863       C16-H33=1.0804       C17-C16=1.3863       
C17-C18=1.4243       C17-N21=1.3598       C18-C17=1.4243       C18-C19=1.3634       C18-H34=1.0727       C19-C18=1.3634       
C19-C20=1.4256       C19-H35=1.0728       C20-C19=1.4256       C20-N21=1.3590       C20-C22=1.3868       N21-C17=1.3598       
N21-C20=1.3590       N21-H36=1.0129       C22-C20=1.3868       C22-C23=1.3872       C22-H37=1.0814       C23-C1=1.4533        
C23-C22=1.3872       C23-N24=1.3542       N24-C3=1.3437        N24-C23=1.3542       H25-C1=1.0731        H26-C2=1.0729        
H27-C6=1.0727        H28-C7=1.0726        H29-N9=1.0135        H30-C10=1.0813       H31-C12=1.0733       H32-C13=1.0732       
H33-C16=1.0804       H34-C18=1.0727       H35-C19=1.0728       H36-N21=1.0129       H37-C22=1.0814       C38-C4=1.3971        
C38-C39=1.2199       C39-C38=1.2199       C39-C40=1.3367       C40-C39=1.3367       C40-C41=1.2242       C41-C40=1.2242       
C41-C42=1.3367       C42-C41=1.3367       C42-C43=1.2199       C43-C42=1.2199       C43-C59=1.3972       C44-C45=1.3458       
C44-C66=1.4560       C44-H68=1.0733       C45-C44=1.3458       C45-C46=1.4548       C45-H69=1.0732       C46-C45=1.4548       
C46-C47=1.3892       C46-N67=1.3497       C47-C46=1.3892       C47-C48=1.3863       C47-H70=1.0804       C48-C47=1.3863       
C48-C49=1.4244       C48-N52=1.3599       C49-C48=1.4244       C49-C50=1.3634       C49-H71=1.0727       C50-C49=1.3634       
C50-C51=1.4257       C50-H72=1.0729       C51-C50=1.4257       C51-N52=1.3590       C51-C53=1.3868       N52-C48=1.3599       
N52-C51=1.3590       N52-H73=1.0129       C53-C51=1.3868       C53-C54=1.3872       C53-H74=1.0814       C54-C53=1.3872       
C54-C55=1.4533       C54-N58=1.3542       C55-C54=1.4533       C55-C56=1.3473       C55-H75=1.0731       C56-C55=1.3473       
C56-C57=1.4521       C56-H76=1.0729       C57-C56=1.4521       C57-N58=1.3437       C57-C59=1.4087       N58-C54=1.3542       
N58-C57=1.3437       C59-C43=1.3972       C59-C57=1.4087       C59-C60=1.4044       C60-C59=1.4044       C60-C61=1.4207       
C60-N64=1.3565       C61-C60=1.4207       C61-C62=1.3651       C61-H77=1.0727       C62-C61=1.3651       C62-C63=1.4234       
C62-H78=1.0727       C63-C62=1.4234       C63-N64=1.3619       C63-C65=1.3870       N64-C60=1.3565       N64-C63=1.3619       
N64-H79=1.0135       C65-C63=1.3870       C65-C66=1.3880       C65-H80=1.0813       C66-C44=1.4560       C66-C65=1.3880       
C66-N67=1.3490       N67-C46=1.3497       N67-C66=1.3490       H68-C44=1.0733       H69-C45=1.0732       H70-C47=1.0804       
H71-C49=1.0727       H72-C50=1.0729       H73-N52=1.0129       H74-C53=1.0814       H75-C55=1.0731       H76-C56=1.0729       
H77-C61=1.0727       H78-C62=1.0727       H79-N64=1.0135       H80-C65=1.0813       
 C  H  Rav=1.0751 sigma=0.0036  Rmin=1.0726  Rmax=1.0814    22
 C  C  Rav=1.3887 sigma=0.0554  Rmin=1.2199  Rmax=1.4560    47
 N  H  Rav=1.0132 sigma=0.0003  Rmin=1.0129  Rmax=1.0135     4
 N  C  Rav=1.3542 sigma=0.0059  Rmin=1.3437  Rmax=1.3619    16

 selected bond angles (degree)
 --------------------
C23-C1-C2=106.31               H25-C1-C2=129.00               H25-C1-C23=124.69              C3-C2-C1=105.93                
H26-C2-C1=129.27               H26-C2-C3=124.80               C4-C3-C2=123.20                N24-C3-C2=111.23               
N24-C3-C4=125.57               C5-C4-C3=124.34                C38-C4-C3=118.15               C38-C4-C5=117.52               
C6-C5-C4=127.30                N9-C5-C4=125.15                N9-C5-C6=107.55                C7-C6-C5=107.47                
H27-C6-C5=124.74               H27-C6-C7=127.78               C8-C7-C6=107.86                H28-C7-C6=127.42               
H28-C7-C8=124.73               N9-C8-C7=107.02                C10-C8-C7=126.55               C10-C8-N9=126.43               
C8-N9-C5=110.10                H29-N9-C5=123.88               H29-N9-C8=126.02               C11-C10-C8=127.42              
H30-C10-C8=116.10              H30-C10-C11=116.48             

 selected dihedral angles (degree)
 ---------------------------------
C3-C2-C1-C23=359.85           C3-C2-C1-H25=179.95           H26-C2-C1-C23=179.95          H26-C2-C1-H25=  0.05          
C4-C3-C2-C1=179.84            C4-C3-C2-H26=359.74           N24-C3-C2-C1=  0.03           N24-C3-C2-H26=179.94          
C5-C4-C3-C2=179.14            C5-C4-C3-N24=358.92           C38-C4-C3-C2=358.78           C38-C4-C3-N24=178.56          
C6-C5-C4-C3=181.07            C6-C5-C4-C38=  1.43           N9-C5-C4-C3=  0.72            N9-C5-C4-C38=181.08           
C7-C6-C5-C4=179.66            C7-C6-C5-N9=359.96            H27-C6-C5-C4=359.78           H27-C6-C5-N9=180.07           
C8-C7-C6-C5=  0.13            C8-C7-C6-H27=180.01           H28-C7-C6-C5=180.07           H28-C7-C6-H27=359.96          
N9-C8-C7-C6=359.82            N9-C8-C7-H28=179.88           C10-C8-C7-C6=179.44           C10-C8-C7-H28=359.50          
C8-N9-C5-C4=180.22            C8-N9-C5-C6=359.93            H29-N9-C5-C4=  0.32           H29-N9-C5-C6=180.03           
C5-N9-C8-C7=  0.15            C5-N9-C8-C10=180.53           H29-N9-C8-C7=180.05           H29-N9-C8-C10=  0.43          
C11-C10-C8-C7=180.80          C11-C10-C8-N9=  0.35          H30-C10-C8-C7=  0.42          H30-C10-C8-N9=179.96          
           -------------------------------------------------
          |                Final Singlepoint                |
[...]
    60   6 C       64   7 N                                       1.3564892
    63   6 C       64   7 N                                       1.3618809
    63   6 C       65   6 C                                       1.3870314
    65   6 C       66   6 C                                       1.3879532
    46   6 C       67   7 N                                       1.3497043
    66   6 C       67   7 N                                       1.3490345
    44   6 C       68   1 H                                       1.0732691
    45   6 C       69   1 H                                       1.0732301
    47   6 C       70   1 H                                       1.0804225
    49   6 C       71   1 H                                       1.0727248
    50   6 C       72   1 H                                       1.0728525
    52   7 N       73   1 H                                       1.0129137 (min)
    53   6 C       74   1 H                                       1.0813887
    55   6 C       75   1 H                                       1.0730934
    56   6 C       76   1 H                                       1.0729042
    61   6 C       77   1 H                                       1.0727029
    62   6 C       78   1 H                                       1.0726523
    64   7 N       79   1 H                                       1.0134708
    65   6 C       80   1 H                                       1.0812959

 * 4 distinct bonds (by element types)

   Z      Z             #   av. dist./Å        max./Å        min./Å
   1 H    6 C          22     1.0751347     1.0813925     1.0726226
   6 C    6 C          41     1.3875832     1.4548450     1.2199075
   1 H    7 N           4     1.0132027     1.0134989     1.0129137
   6 C    7 N          16     1.3542380     1.3618809     1.3436985

           -------------------------------------------------
          |               Frequency Printout                |
           -------------------------------------------------
 projected vibrational frequencies (cm⁻¹)
eigval :       -0.00    -0.00     0.00     0.00     0.00     0.00
eigval :       -1.91     6.39     6.85    17.42    20.99    41.31
eigval :       42.13    42.47    43.84    56.04    65.44    82.45
eigval :       86.57    95.35    96.22   112.80   115.87   116.93
eigval :      119.53   141.84   142.18   155.68   163.77   172.09
eigval :      183.34   183.44   199.48   202.39   203.28   207.94
eigval :      254.80   265.22   265.28   268.20   274.96   276.16
eigval :      289.12   296.14   299.38   317.31   340.11   341.18
eigval :      345.42   348.92   350.84   353.41   357.09   362.03
eigval :      362.20   363.89   384.25   390.98   394.00   394.03
eigval :      418.60   421.65   430.20   430.29   439.26   441.21
eigval :      454.73   503.21   503.52   600.59   600.67   605.19
eigval :      605.23   627.20   627.24   636.74   636.75   647.08
eigval :      647.11   650.92   651.02   653.86   653.89   660.15
eigval :      660.58   668.29   668.44   701.26   713.81   716.99
eigval :      722.73   725.59   730.40   731.07   741.92   743.12
eigval :      748.13   749.63   760.71   761.95   770.67   770.75
eigval :      789.17   789.74   798.44   798.47   806.18   806.25
eigval :      812.14   812.21   819.30   819.36   827.91   827.95
eigval :      836.43   836.47   839.23   839.26   842.28   842.30
eigval :      842.86   842.86   852.51   852.54   853.86   854.00
eigval :      896.46   949.19   960.17   960.39   972.99   973.39
eigval :      976.86   977.77   999.69   999.79  1006.53  1010.01
eigval :     1015.97  1016.46  1031.24  1031.60  1045.91  1063.41
eigval :     1063.54  1066.23  1066.38  1069.49  1069.80  1075.08
eigval :     1075.17  1095.76  1118.38  1122.47  1125.76  1140.32
eigval :     1150.95  1161.18  1170.06  1181.01  1183.51  1184.32
eigval :     1188.11  1205.37  1207.66  1233.25  1233.88  1254.94
eigval :     1256.95  1284.72  1285.58  1293.03  1305.70  1305.75
eigval :     1338.49  1338.88  1347.16  1347.28  1362.13  1366.22
eigval :     1375.00  1375.28  1383.21  1383.25  1388.12  1388.32
eigval :     1392.50  1397.60  1444.89  1458.53  1467.69  1478.29
eigval :     1481.65  1491.96  1503.62  1505.53  1506.35  1508.96
eigval :     1509.86  1514.20  1514.35  1549.64  1550.24  1555.51
eigval :     1555.78  1560.54  1560.69  1585.36  1585.55  1594.84
eigval :     1594.94  2161.63  2202.46  2262.29  3076.89  3076.97
eigval :     3077.77  3077.91  3086.41  3086.52  3140.04  3140.06
eigval :     3144.60  3144.83  3155.20  3155.40  3156.37  3156.48
eigval :     3159.49  3159.69  3160.95  3161.34  3168.89  3169.08
eigval :     3172.01  3172.16  3348.24  3348.39  3356.79  3357.24
 reduced masses (amu)
   1: 11.82   2: 11.74   3: 11.71   4: 11.89   5: 11.87   6: 11.55   7: 11.24   8: 11.45
   9: 11.49  10: 11.41  11: 11.45  12: 11.61  13: 11.12  14: 10.90  15: 11.36  16: 11.20
  17: 11.78  18: 11.20  19: 11.59  20: 10.83  21: 10.81  22: 10.92  23: 10.72  24: 10.86
  25: 11.23  26: 12.02  27: 12.02  28: 12.02  29: 11.67  30: 11.86  31: 11.52  32: 11.54
  33: 11.68  34: 12.33  35: 12.43  36: 11.50  37: 11.33  38: 10.46  39: 10.46  40: 11.40
  41: 11.18  42: 11.77  43: 11.25  44: 11.90  45: 11.98  46: 11.92  47: 11.02  48: 11.04
  49: 11.99  50: 11.86  51: 10.43  52: 10.41  53: 10.98  54: 10.84  55: 10.90  56: 10.86
  57: 11.99  58: 12.00  59:  9.92  60:  9.92  61: 10.30  62: 10.30  63:  9.91  64:  9.91
  65: 11.58  66: 11.71  67: 11.73  68: 11.52  69: 11.52  70: 11.25  71: 11.25  72: 10.94
  73: 10.94  74: 10.66  75: 10.66  76: 10.81  77: 10.81  78: 10.97  79: 10.97  80: 10.10
  81: 10.20  82:  9.99  83: 10.09  84:  3.86  85:  3.69  86: 11.26  87: 11.26  88: 11.67
  89: 11.08  90: 10.98  91: 10.44  92: 10.03  93:  2.58  94:  3.05  95: 10.75  96: 10.69
  97: 10.46  98: 10.39  99: 11.15 100: 11.23 101: 11.31 102: 11.30 103: 11.58 104: 11.59
 105:  3.69 106:  3.69 107:  3.86 108:  3.86 109:  4.23 110:  4.22 111:  4.41 112:  4.41
 113:  3.80 114:  3.80 115:  3.76 116:  3.76 117:  4.03 118:  4.03 119:  3.70 120:  3.70
 121:  3.72 122:  3.72 123:  3.43 124:  3.43 125:  3.37 126:  3.37 127: 11.40 128: 10.83
 129:  6.63 130:  6.87 131:  8.72 132:  8.84 133: 10.84 134: 11.02 135:  8.79 136:  8.74
 137:  9.08 138:  8.37 139:  9.08 140:  9.09 141: 10.61 142: 10.87 143:  9.08 144:  1.80
 145:  1.77 146:  1.88 147:  1.84 148:  2.17 149:  2.14 150:  1.91 151:  1.92 152:  7.09
 153:  6.54 154:  5.30 155:  5.75 156:  6.79 157:  7.67 158:  5.84 159:  7.22 160:  7.00
 161:  6.08 162:  5.93 163:  6.84 164:  9.78 165:  9.33 166:  8.48 167:  8.63 168:  7.91
 169:  8.06 170:  8.63 171:  8.62 172: 11.51 173: 10.96 174: 11.06 175: 10.71 176: 10.66
 177: 11.24 178: 11.25 179: 10.58 180: 10.69 181:  9.57 182:  9.61 183: 11.27 184: 11.29
 185: 10.71 186: 10.79 187: 10.63 188: 10.63 189: 11.69 190: 11.54 191: 11.67 192: 11.43
 193: 11.43 194: 11.83 195: 11.91 196: 11.77 197: 11.77 198: 11.60 199: 11.60 200: 11.46
 201: 11.46 202: 11.71 203: 11.74 204: 11.69 205: 11.69 206: 11.61 207: 11.61 208: 11.72
 209: 11.72 210: 11.72 211: 11.72 212: 12.01 213: 12.01 214: 12.01 215:  1.80 216:  1.80
 217:  1.80 218:  1.80 219:  1.81 220:  1.81 221:  1.80 222:  1.80 223:  1.81 224:  1.81
 225:  1.98 226:  1.98 227:  1.82 228:  1.82 229:  1.82 230:  1.82 231:  1.97 232:  1.97
 233:  1.96 234:  1.96 235:  1.96 236:  1.96 237:  1.89 238:  1.89 239:  1.89 240:  1.89
 IR intensities (km·mol⁻¹)
   1:  4.22   2: 10.31   3:  6.26   4:  0.25   5:  0.84   6:  9.07   7:  0.03   8:  0.75
   9:  0.32  10:  1.59  11:  0.08  12:  0.26  13:  0.38  14:  0.85  15:  0.99  16:  0.99
  17:  0.99  18:  9.03  19:  5.57  20: 61.74  21: 43.01  22:  0.20  23:  0.10  24:  0.74
  25:  0.53  26:  0.14  27:  0.71  28:  0.83  29:  0.22  30:  0.03  31:  1.11  32:  0.05
  33:  0.57  34: 47.06  35:  2.64  36:  8.21  37: 11.98  38:  0.64  39:  0.50  40:  2.94
  41:  6.74  42:  1.76  43:  1.10  44:  0.53  45:  0.12  46:  1.41  47: 25.28  48:  4.23
  49:  0.50  50:  0.45  51:  4.15  52:  2.07  53:  6.26  54:  3.56  55: 19.17  56:  1.38
  57:  0.10  58:  0.92  59:  0.10  60:  0.06  61:  1.25  62:  0.08  63:  1.03  64:  4.48
  65:  0.76  66:  0.19  67: 11.81  68:  0.99  69:  5.66  70: 15.96  71: 10.76  72:  0.41
  73:  0.59  74:  0.11  75:  0.27  76:  1.80  77:  0.25  78:  0.61  79:  3.68  80:  4.46
  81:  9.12  82: 16.71  83: 33.88  84:  0.76  85:  3.59  86:  0.42  87:  2.87  88:  0.04
  89: 21.68  90:  3.54  91:159.12  92:  6.83  93:******  94:853.60  95: 44.36  96:  8.13
  97: 29.44  98:  8.10  99:  7.63 100:  0.50 101:  5.42 102: 14.61 103:  2.56 104:  0.87
 105: 11.83 106: 27.60 107:  1.42 108:  1.56 109:  4.31 110: 11.83 111:  1.11 112:  0.21
 113:  2.18 114:  1.78 115: 11.77 116:  9.15 117: 55.68 118: 63.17 119: 29.84 120: 15.26
 121:  5.20 122:  3.92 123:  2.49 124:  0.48 125:  1.57 126:  0.18 127:  1.82 128:  1.68
 129: 11.47 130:  1.02 131: 47.92 132: 92.81 133: 63.59 134:  7.82 135: 24.52 136:  7.48
 137:  0.54 138:  0.04 139: 37.67 140: 11.39 141: 23.97 142:  4.62 143: 21.65 144:  2.82
 145:  8.98 146:  0.78 147:  0.54 148:  3.29 149: 12.26 150:  7.15 151:  4.64 152:  1.77
 153: 36.09 154: 31.20 155: 23.21 156:  3.78 157:124.45 158:  0.68 159: 18.89 160:  0.37
 161: 36.22 162:  2.40 163:  1.97 164:  1.98 165:  9.67 166:  3.24 167: 61.60 168:  0.51
 169:  2.90 170:  0.02 171:  5.44 172:  0.43 173:  3.11 174:  4.30 175:  0.80 176: 38.64
 177:  3.43 178:  6.71 179: 44.85 180:  0.95 181: 42.54 182: 18.74 183:  0.46 184:  8.85
 185:  6.90 186: 26.99 187:  5.02 188:  2.91 189: 11.44 190:  0.61 191:  6.82 192:  0.05
 193:  8.41 194:  4.44 195: 23.18 196:  0.88 197:  0.98 198:  0.98 199: 14.46 200: 10.10
 201: 46.75 202: 17.27 203: 70.68 204:  2.32 205: 39.72 206:  0.64 207: 27.28 208:  3.05
 209: 56.77 210: 50.47 211: 32.51 212:  0.04 213:  0.00 214:  9.48 215: 12.98 216:  3.43
 217:  5.68 218:  1.40 219: 14.89 220: 14.81 221: 24.71 222: 32.28 223: 33.52 224: 38.11
 225:427.81 226: 23.13 227: 52.08 228: 48.69 229: 33.89 230: 31.59 231: 62.35 232: 61.82
 233:252.94 234: 31.96 235: 24.28 236: 58.96 237:243.24 238: 21.63 239:103.71 240: 11.00
 Raman intensities (amu)
   1:  0.00   2:  0.00   3:  0.00   4:  0.00   5:  0.00   6:  0.00   7:  0.00   8:  0.00
   9:  0.00  10:  0.00  11:  0.00  12:  0.00  13:  0.00  14:  0.00  15:  0.00  16:  0.00
  17:  0.00  18:  0.00  19:  0.00  20:  0.00  21:  0.00  22:  0.00  23:  0.00  24:  0.00
  25:  0.00  26:  0.00  27:  0.00  28:  0.00  29:  0.00  30:  0.00  31:  0.00  32:  0.00
  33:  0.00  34:  0.00  35:  0.00  36:  0.00  37:  0.00  38:  0.00  39:  0.00  40:  0.00
  41:  0.00  42:  0.00  43:  0.00  44:  0.00  45:  0.00  46:  0.00  47:  0.00  48:  0.00
  49:  0.00  50:  0.00  51:  0.00  52:  0.00  53:  0.00  54:  0.00  55:  0.00  56:  0.00
  57:  0.00  58:  0.00  59:  0.00  60:  0.00  61:  0.00  62:  0.00  63:  0.00  64:  0.00
  65:  0.00  66:  0.00  67:  0.00  68:  0.00  69:  0.00  70:  0.00  71:  0.00  72:  0.00
  73:  0.00  74:  0.00  75:  0.00  76:  0.00  77:  0.00  78:  0.00  79:  0.00  80:  0.00
  81:  0.00  82:  0.00  83:  0.00  84:  0.00  85:  0.00  86:  0.00  87:  0.00  88:  0.00
  89:  0.00  90:  0.00  91:  0.00  92:  0.00  93:  0.00  94:  0.00  95:  0.00  96:  0.00
  97:  0.00  98:  0.00  99:  0.00 100:  0.00 101:  0.00 102:  0.00 103:  0.00 104:  0.00
 105:  0.00 106:  0.00 107:  0.00 108:  0.00 109:  0.00 110:  0.00 111:  0.00 112:  0.00
 113:  0.00 114:  0.00 115:  0.00 116:  0.00 117:  0.00 118:  0.00 119:  0.00 120:  0.00
 121:  0.00 122:  0.00 123:  0.00 124:  0.00 125:  0.00 126:  0.00 127:  0.00 128:  0.00
 129:  0.00 130:  0.00 131:  0.00 132:  0.00 133:  0.00 134:  0.00 135:  0.00 136:  0.00
 137:  0.00 138:  0.00 139:  0.00 140:  0.00 141:  0.00 142:  0.00 143:  0.00 144:  0.00
 145:  0.00 146:  0.00 147:  0.00 148:  0.00 149:  0.00 150:  0.00 151:  0.00 152:  0.00
 153:  0.00 154:  0.00 155:  0.00 156:  0.00 157:  0.00 158:  0.00 159:  0.00 160:  0.00
 161:  0.00 162:  0.00 163:  0.00 164:  0.00 165:  0.00 166:  0.00 167:  0.00 168:  0.00
 169:  0.00 170:  0.00 171:  0.00 172:  0.00 173:  0.00 174:  0.00 175:  0.00 176:  0.00
 177:  0.00 178:  0.00 179:  0.00 180:  0.00 181:  0.00 182:  0.00 183:  0.00 184:  0.00
 185:  0.00 186:  0.00 187:  0.00 188:  0.00 189:  0.00 190:  0.00 191:  0.00 192:  0.00
 193:  0.00 194:  0.00 195:  0.00 196:  0.00 197:  0.00 198:  0.00 199:  0.00 200:  0.00
 201:  0.00 202:  0.00 203:  0.00 204:  0.00 205:  0.00 206:  0.00 207:  0.00 208:  0.00
Molecule has no symmetry elements
It seems to be the C1 point group
 209:  0.00 210:  0.00 211:  0.00 212:  0.00 213:  0.00 214:  0.00 215:  0.00 216:  0.00
 217:  0.00 218:  0.00 219:  0.00 220:  0.00 221:  0.00 222:  0.00 223:  0.00 224:  0.00
 225:  0.00 226:  0.00 227:  0.00 228:  0.00 229:  0.00 230:  0.00 231:  0.00 232:  0.00
 233:  0.00 234:  0.00 235:  0.00 236:  0.00 237:  0.00 238:  0.00 239:  0.00 240:  0.00
 output can be read by thermo (or use thermo option).
 writing <g98.out> molden fake output.
 recommended (thermochemical) frequency scaling factor: 1.0
           -------------------------------------------------
          |             Thermodynamic Functions             |
           -------------------------------------------------

c1  symmetry found (for desy threshold:  0.10E+00) used in thermo
 inverting freq            1   1.9053508350628412     

          ...................................................
          :                      SETUP                      :
          :.................................................:
          :  # frequencies                         234      :
          :  # imaginary freq.                       0      :
          :  linear?                             false      :
          :  only rotor calc.                    false      :
          :  symmetry                               c1      :
          :  rotational number                       1      :
          :  scaling factor                  1.0000000      :
          :  rotor cutoff                   50.0000000 cm⁻¹ :
          :  imag. cutoff                  -20.0000000 cm⁻¹ :
          :.................................................:

    mode    ω/cm⁻¹     T·S(HO)/kcal·mol⁻¹    T·S(FR)/kcal·mol⁻¹   T·S(vib)
   ------------------------------------------------------------------------
       1      1.91    -3.37073 (  0.00%)    -2.02440 (100.00%)    -2.02440
       2      6.39    -2.65401 (  0.03%)    -1.66609 ( 99.97%)    -1.66635
       3      6.85    -2.61270 (  0.04%)    -1.64543 ( 99.96%)    -1.64577
       4     17.42    -2.05987 (  1.45%)    -1.36896 ( 98.55%)    -1.37898
       5     20.99    -1.94929 (  3.01%)    -1.31363 ( 96.99%)    -1.33279
       6     41.31    -1.54896 ( 31.79%)    -1.11310 ( 68.21%)    -1.25164
       7     42.13    -1.53731 ( 33.52%)    -1.10726 ( 66.48%)    -1.25141
       8     42.47    -1.53267 ( 34.22%)    -1.10493 ( 65.78%)    -1.25132
       9     43.84    -1.51385 ( 37.15%)    -1.09549 ( 62.85%)    -1.25091
      10     56.04    -1.36910 ( 61.21%)    -1.02276 ( 38.79%)    -1.23476
      11     65.44    -1.27791 ( 74.58%)    -0.97684 ( 25.42%)    -1.20137
      12     82.45    -1.14242 ( 88.09%)    -0.90838 ( 11.91%)    -1.11454
      13     86.57    -1.11394 ( 89.99%)    -0.89394 ( 10.01%)    -1.09191
      14     95.35    -1.05757 ( 92.97%)    -0.86530 (  7.03%)    -1.04406
      15     96.22    -1.05230 ( 93.20%)    -0.86262 (  6.80%)    -1.03941
      16    112.80    -0.96007 ( 96.28%)    -0.81552 (  3.72%)    -0.95470
      17    115.87    -0.94456 ( 96.65%)    -0.80757 (  3.35%)    -0.93997
      18    116.93    -0.93931 ( 96.77%)    -0.80487 (  3.23%)    -0.93496
      19    119.53    -0.92662 ( 97.03%)    -0.79835 (  2.97%)    -0.92281
      20    141.84    -0.82855 ( 98.48%)    -0.74767 (  1.52%)    -0.82732
      21    142.18    -0.82717 ( 98.49%)    -0.74696 (  1.51%)    -0.82596
      22    155.68    -0.77566 ( 98.95%)    -0.72008 (  1.05%)    -0.77507
      23    163.77    -0.74710 ( 99.14%)    -0.70507 (  0.86%)    -0.74674
      24    172.09    -0.71930 ( 99.29%)    -0.69040 (  0.71%)    -0.71909
      25    183.34    -0.68400 ( 99.45%)    -0.67164 (  0.55%)    -0.68393
      26    183.44    -0.68369 ( 99.45%)    -0.67148 (  0.55%)    -0.68363
      27    199.48    -0.63741 ( 99.61%)    -0.64664 (  0.39%)    -0.63745
      28    202.39    -0.62946 ( 99.63%)    -0.64235 (  0.37%)    -0.62951
      29    203.28    -0.62708 ( 99.64%)    -0.64106 (  0.36%)    -0.62713
      30    207.94    -0.61468 ( 99.67%)    -0.63433 (  0.33%)    -0.61474
      31    254.80    -0.50600 ( 99.85%)    -0.57413 (  0.15%)    -0.50610
      32    265.22    -0.48514 ( 99.87%)    -0.56226 (  0.13%)    -0.48524
      33    265.28    -0.48501 ( 99.87%)    -0.56219 (  0.13%)    -0.48511
      34    268.20    -0.47936 ( 99.88%)    -0.55895 (  0.12%)    -0.47946
      35    274.96    -0.46654 ( 99.89%)    -0.55157 (  0.11%)    -0.46664
      36    276.16    -0.46433 ( 99.89%)    -0.55029 (  0.11%)    -0.46442
      37    289.12    -0.44099 ( 99.91%)    -0.53669 (  0.09%)    -0.44107
      38    296.14    -0.42892 ( 99.92%)    -0.52959 (  0.08%)    -0.42900
      39    299.38    -0.42348 ( 99.92%)    -0.52637 (  0.08%)    -0.42356
   ------------------------------------------------------------------------

   temp. (K)  partition function   enthalpy   heat capacity  entropy
                                   cal/mol     cal/K/mol   cal/K/mol   J/K/mol
 298.15  VIB  0.116E+22            25687.542    169.085    162.310
         ROT  0.215E+09              888.752      2.981     41.109
         INT  0.249E+30            26576.294    172.066    203.419
         TR   0.176E+29             1481.254      4.968     45.458
         TOT                       28057.5480   177.0344   248.8771  1041.3019

       T/K    H(0)-H(T)+PV         H(T)/Eh          T*S/Eh         G(T)/Eh
   ------------------------------------------------------------------------
    298.15    0.447125E-01    0.623038E+00    0.118250E+00    0.504789E+00
   ------------------------------------------------------------------------

         :::::::::::::::::::::::::::::::::::::::::::::::::::::
         ::                  THERMODYNAMIC                  ::
         :::::::::::::::::::::::::::::::::::::::::::::::::::::
         :: total free energy        -134.449899257980 Eh   ::
         ::.................................................::
         :: total energy             -134.954688041347 Eh   ::
         :: zero point energy           0.578325787330 Eh   ::
         :: G(RRHO) w/o ZPVE           -0.073537003963 Eh   ::
         :: G(RRHO) contrib.            0.504788783367 Eh   ::
         :::::::::::::::::::::::::::::::::::::::::::::::::::::

optimized geometry written to: xtbopt.xyz


           -------------------------------------------------
          | TOTAL ENERGY             -134.954688041347 Eh   |
          | TOTAL ENTHALPY           -134.331649705269 Eh   |
          | TOTAL FREE ENERGY        -134.449899257980 Eh   |
          | GRADIENT NORM               0.000463543013 Eh/α |
          | HOMO-LUMO GAP               1.205885074787 eV   |
           -------------------------------------------------

------------------------------------------------------------------------
 * finished run on 2021/11/18 at 17:19:34.020     
------------------------------------------------------------------------
 total:
 * wall-time:     0 d,  0 h,  1 min, 22.330 sec
 *  cpu-time:     0 d,  0 h,  1 min, 22.329 sec
 * ratio c/w:     1.000 speedup
 SCF:
 * wall-time:     0 d,  0 h,  0 min,  0.274 sec
 *  cpu-time:     0 d,  0 h,  0 min,  0.274 sec
 * ratio c/w:     1.000 speedup
 ANC optimizer:
 * wall-time:     0 d,  0 h,  0 min,  8.359 sec
 *  cpu-time:     0 d,  0 h,  0 min,  8.357 sec
 * ratio c/w:     1.000 speedup
 analytical hessian:
 * wall-time:     0 d,  0 h,  1 min, 10.403 sec
 *  cpu-time:     0 d,  0 h,  1 min, 10.405 sec
 * ratio c/w:     1.000 speedup

