80
 energy: -134.680682679833 gnorm: 0.355478632176 xtb: 6.4.1 (bd6e46d)
C         5.37172600000000    3.84358000000000    0.85346700000000
C         4.42939900000000    2.94441400000000    0.65388800000000
C         5.07690000000000    1.73000200000000    0.25071200000000
C         4.67943100000000    0.44054900000000   -0.10041400000000
C         5.49650900000000   -0.62309900000000   -0.52134500000000
C         5.06468500000000   -1.39529700000000   -1.62781000000000
C         6.02780700000000   -2.33864000000000   -1.83261100000000
C         7.01598800000000   -2.11102000000000   -0.84334300000000
N         6.67350600000000   -1.07406900000000   -0.06480100000000
C         8.14459900000000   -2.95025200000000   -0.82549400000000
C         9.46551000000000   -2.61316700000000   -0.66610200000000
C        10.74275000000000   -3.30831700000000   -0.64909800000000
C        11.69477600000000   -2.41078000000000   -0.44084200000000
C        11.08082100000000   -1.10912300000000   -0.31487000000000
N         9.75470900000000   -1.31434400000000   -0.46084200000000
C        11.44887800000000    0.19838400000000   -0.09917200000000
C        10.64814600000000    1.28563900000000    0.29257300000000
C        11.14665600000000    2.16164200000000    1.28758500000000
C        10.18333300000000    3.10550400000000    1.48234800000000
C         9.12493500000000    2.77522200000000    0.59840800000000
N         9.42936300000000    1.67632700000000   -0.10868100000000
C         7.97903400000000    3.59070900000000    0.59624600000000
C         6.64923300000000    3.20606500000000    0.57647300000000
N         6.39014800000000    1.94737400000000    0.22335400000000
H         5.26697300000000    4.86999000000000    1.16418800000000
H         3.36583400000000    3.05691300000000    0.76116100000000
H         4.13762700000000   -1.28302200000000   -2.22020600000000
H         6.01007700000000   -3.11702900000000   -2.61812400000000
H         7.24716100000000   -0.67324300000000    0.80584700000000
H         8.00398900000000   -4.05098300000000   -0.97193000000000
H        10.84527400000000   -4.37961400000000   -0.78775000000000
H        12.75913000000000   -2.58698600000000   -0.37069800000000
H        12.54709900000000    0.35619400000000   -0.25519800000000
H        12.11973200000000    2.11744500000000    1.81461600000000
H        10.24288600000000    3.95363400000000    2.18999700000000
H         8.79844700000000    1.19183400000000   -0.89316300000000
H         8.10193600000000    4.69936800000000    0.63100100000000
C         3.22197700000000    0.24833900000000   -0.02414600000000
C         2.02629900000000    0.09432700000000    0.01597500000000
C         0.62226400000000   -0.06170500000000    0.05405300000000
C        -0.57798500000000   -0.17484100000000    0.07625400000000
C        -1.98543200000000   -0.28340400000000    0.08957800000000
C        -3.21552100000000   -0.35548900000000    0.09818400000000
C       -10.68065900000000    3.01341000000000   -1.74695800000000
C       -11.61973400000000    2.27123900000000   -1.17828300000000
C       -11.03508600000000    1.11172700000000   -0.53656800000000
C       -11.48209300000000    0.01631000000000    0.19146300000000
C       -10.72013100000000   -1.09512900000000    0.65234300000000
C       -11.15646900000000   -2.42750700000000    0.48877900000000
C       -10.21670100000000   -3.25350800000000    1.00148100000000
C        -9.19526500000000   -2.41524100000000    1.48373100000000
N        -9.53059800000000   -1.13271400000000    1.25997000000000
C        -8.05969600000000   -2.99246200000000    2.07184000000000
C        -6.70329700000000   -2.66794400000000    1.83874900000000
C        -5.44984800000000   -3.21346200000000    2.29950200000000
C        -4.50150200000000   -2.48148900000000    1.73723600000000
C        -5.11223900000000   -1.46868000000000    0.91824400000000
N        -6.42316200000000   -1.66225900000000    1.04421600000000
C        -4.64835200000000   -0.40646400000000    0.08683000000000
C        -5.45518100000000    0.46766100000000   -0.66747100000000
C        -5.03834900000000    0.75497800000000   -1.98128700000000
C        -5.97691900000000    1.57945100000000   -2.48560000000000
C        -6.96679200000000    1.80096400000000   -1.49291300000000
N        -6.61136800000000    1.10925400000000   -0.40083300000000
C        -8.06056500000000    2.61157600000000   -1.80989200000000
C        -9.40888800000000    2.35637500000000   -1.49624800000000
N        -9.73367400000000    1.27144900000000   -0.79099800000000
H       -10.81597300000000    3.93370000000000   -2.29566100000000
H       -12.70077500000000    2.47175000000000   -1.17192800000000
H       -12.53559600000000   -0.02493700000000    0.42100200000000
H       -12.12298500000000   -2.73747200000000    0.01861500000000
H       -10.25927500000000   -4.34850400000000    1.03453600000000
H        -8.89458100000000   -0.24117300000000    1.56791700000000
H        -8.19301100000000   -3.83358200000000    2.80805600000000
H        -5.36575700000000   -4.05439400000000    2.96967800000000
H        -3.41320200000000   -2.60152500000000    1.85599600000000
H        -4.13065000000000    0.39545300000000   -2.50592700000000
H        -5.92114500000000    1.98543500000000   -3.50976300000000
H        -7.17048400000000    1.09315500000000    0.56363500000000
H        -7.94660800000000    3.53553000000000   -2.36678600000000
80
 energy: -134.780704993641 gnorm: 0.169610046279 xtb: 6.4.1 (bd6e46d)
C         5.38193528235557    3.85502072269801    0.84367941266171
C         4.42160225367208    2.93985413370068    0.65649022619526
C         5.08652529229849    1.71497934279710    0.26829252112557
C         4.63711794751904    0.44249798881505   -0.08093795935885
C         5.46360607655846   -0.62057341041747   -0.52142706995195
C         5.04979995636564   -1.40868612825015   -1.61931467456093
C         6.01775979397051   -2.35588821009687   -1.82158992598913
C         7.02193864971577   -2.13594587525936   -0.84887772957375
N         6.67271213897643   -1.06559238271285   -0.08722933554490
C         8.15529380694013   -2.97411016808128   -0.81154717038717
C         9.46607179662574   -2.59627295496208   -0.63854906090867
C        10.73738141702922   -3.31518393726695   -0.64760917967868
C        11.70150565247108   -2.40518765177614   -0.45161818602281
C        11.05290587684535   -1.10623262844547   -0.34089879274180
N         9.72202383994254   -1.28908459985506   -0.44806801597377
C        11.47045043113707    0.18925786832849   -0.11657702289542
C        10.67506554128583    1.28041855353559    0.28573205334270
C        11.15977620938172    2.17370566611084    1.27220711300677
C        10.19162595488995    3.12124308993643    1.46705626919424
C         9.11853142649275    2.80144000045529    0.59833102087780
N         9.42817432912092    1.67022012051967   -0.08789380945525
C         7.96726851804344    3.61382094055459    0.58560622860666
C         6.65159882936853    3.19539641802439    0.54857915890593
N         6.40845300409263    1.91690671161477    0.22440118348772
H         5.27374452812539    4.87591633807367    1.16233352194890
H         3.35954335167641    3.05550699132409    0.76448016172690
H         4.14830407397414   -1.27760119143329   -2.20721345919857
H         6.01968792398926   -3.10853198844097   -2.60235659752834
H         7.21831225486242   -0.68558369447840    0.73838744747265
H         8.00034315915709   -4.04396519426098   -1.00002888058405
H        10.84342087510234   -4.37958009377577   -0.78507328192937
H        12.76153182282325   -2.58216750213790   -0.37249043154693
H        12.55161915584792    0.35496968781867   -0.21309332647962
H        12.10568594255620    2.10970171119850    1.80105205580317
H        10.23247796255841    3.94203807734121    2.17574831952204
H         8.82893355971940    1.20872782974026   -0.83022870372407
H         8.10901003597722    4.69667155942376    0.67240484952631
C         3.21260361317285    0.24222581030679   -0.03677096174630
C         2.00134983942102    0.08999558925744    0.00391088045912
C         0.62629384114880   -0.05618811722935    0.05770937927831
C        -0.59530471759561   -0.17056824871946    0.08006377005476
C        -1.97419287387419   -0.27916472960493    0.07978562068922
C        -3.19631247752858   -0.36117514410826    0.07820738981084
C       -10.67946404516653    3.01419097467687   -1.74347045445246
C       -11.63732839263809    2.27111282766550   -1.16934921372426
C       -11.00466661619676    1.12004281721201   -0.52391833952354
C       -11.48138508754572    0.03249260061625    0.19102840832631
C       -10.72916214194479   -1.08552088292130    0.64499101971649
C       -11.17964460314623   -2.41997775636981    0.49975026469267
C       -10.22938335015856   -3.25151922875075    1.02217513380395
C        -9.18351931390766   -2.42779617577829    1.49671214052891
N        -9.51311451799810   -1.13404429388218    1.24179387103739
C        -8.03923537988312   -2.99385495244347    2.09205861768540
C        -6.71373432015972   -2.64277934759461    1.84589947184470
C        -5.45523492597600   -3.21500077817576    2.30578307745862
C        -4.48588195028016   -2.47906222708081    1.73850379067898
C        -5.12713124715054   -1.45598049949265    0.93266368764983
N        -6.45132499386866   -1.61919404995823    1.03222795347637
C        -4.61932202013418   -0.41578221679950    0.11941265084034
C        -5.42629323796678    0.45695712709133   -0.65875619514291
C        -5.02099869341352    0.76915154483884   -1.97569837347418
C        -5.96604563107354    1.60447110529180   -2.49180168570166
C        -6.96830494508846    1.80996552740643   -1.50764215644090
N        -6.60981194595874    1.08904031502555   -0.41114067936983
C        -8.08343147917804    2.61920811284974   -1.79726223533713
C        -9.40858070320457    2.34043551593147   -1.46106178855835
N        -9.68482818288884    1.23650590017129   -0.75545227213644
H       -10.81128737321220    3.93012882089864   -2.29625833710945
H       -12.70304244565569    2.47050671134819   -1.17212224525590
H       -12.54427740277204   -0.02776402446891    0.38977507381813
H       -12.11076734426257   -2.72316986605093    0.02170389596564
H       -10.25436798206308   -4.33292432169008    1.03694282064517
H        -8.92287537652442   -0.29514020378509    1.53169533597437
H        -8.19045752039141   -3.84246298081222    2.77685533305782
H        -5.36601120136048   -4.05605870553101    2.96978002519465
H        -3.41461990359896   -2.60104899892521    1.85363771021077
H        -4.14170246680097    0.39557343671163   -2.49005685497536
H        -5.93819957141239    1.99238820282291   -3.50203676060115
H        -7.14351119230469    1.07462875955968    0.50142772560923
H        -7.94722939092676    3.51905191013049   -2.38788442432842
80
 energy: -134.825435489747 gnorm: 0.057779675226 xtb: 6.4.1 (bd6e46d)
C         5.39635684565608    3.85445265153746    0.82118647839119
C         4.42416924885841    2.92837849887850    0.66141110345578
C         5.09893437183216    1.69425987708426    0.28599055843413
C         4.58564567452142    0.43753327031238   -0.06345742192337
C         5.42479772587602   -0.62527141087820   -0.52553544215406
C         5.02847438075133   -1.43044074284900   -1.61039528259748
C         5.99968542262489   -2.37743921003440   -1.80968556924750
C         7.01810072954616   -2.15922538599904   -0.85724336117584
N         6.66392626983938   -1.05704551075313   -0.11617242118894
C         8.15765670434488   -2.99425825234363   -0.80153443904432
C         9.45724828622325   -2.57407107186100   -0.60919222923673
C        10.72276489579651   -3.30954409184955   -0.63855529890442
C        11.69588972835628   -2.38839339544932   -0.46902511896678
C        11.01746165075496   -1.09547671241754   -0.36066534898259
N         9.68868240402275   -1.26398149058107   -0.43355698363679
C        11.49042360040209    0.18384762427406   -0.12355378405162
C        10.70268187098249    1.28101579375032    0.28252989348760
C        11.17709134413813    2.19498360268640    1.25299413011107
C        10.20732221190133    3.14158082353427    1.44724780360125
C         9.11845807068581    2.82564500356224    0.60032699323531
N         9.42994441599813    1.66428233317985   -0.06094621469833
C         7.95863861575862    3.62892253747880    0.58267431494896
C         6.65679338225824    3.17309355194674    0.52179009650658
N         6.42350203489202    1.88143837519407    0.22354332652908
H         5.28636043767261    4.87255289300607    1.14579833995046
H         3.36306291937221    3.04871826270465    0.77221515793926
H         4.14575406037680   -1.28014438489138   -2.19584627279180
H         6.02357615383050   -3.11167857704828   -2.58806766844872
H         7.18638791250220   -0.69271995836355    0.65997434598290
H         7.99437137772949   -4.03735087543228   -1.03656450296839
H        10.83283270424024   -4.36966569022304   -0.77536473392602
H        12.75347276993839   -2.56393779432591   -0.38548342621015
H        12.55932511462156    0.34955335485862   -0.15603792931607
H        12.10274224040051    2.10974391270063    1.78464510772734
H        10.22801792126810    3.94159494174226    2.15930769548835
H         8.85909032896791    1.22167642008202   -0.75732622521094
H         8.11450673650684    4.69051333837744    0.72986514943705
C         3.19244690502476    0.23873749890971   -0.04735541793079
C         1.97297832441719    0.09321749368115    0.00547990276944
C         0.62840291103016   -0.05661927374152    0.04537556579199
C        -0.59997139421132   -0.17079045607848    0.06802594124764
C        -1.95154165470280   -0.26858487169046    0.07999598556183
C        -3.17871098678101   -0.35569434030749    0.06351808929716
C       -10.66660114646693    3.00524678931747   -1.72598096110108
C       -11.63832577181604    2.26362524410551   -1.15147046046567
C       -10.97133895270369    1.12732732782424   -0.49970568487439
C       -11.48134957505084    0.04196116366502    0.19217863579632
C       -10.73943390705408   -1.08094221726766    0.64163268839616
C       -11.20243834569340   -2.41363009854719    0.51830907799784
C       -10.24743944217345   -3.24684083186879    1.04591946532845
C        -9.17954757551440   -2.44153501271377    1.50551431099278
N        -9.49684505109789   -1.13955284343343    1.21679637547867
C        -8.02405819843001   -2.99520175653564    2.10439582725534
C        -6.72541364308764   -2.60732540138008    1.85439742410875
C        -5.46655546373975   -3.20054724292456    2.30877334587254
C        -4.48235021920498   -2.46727263797463    1.74092972902238
C        -5.14505529628849   -1.43517398436831    0.94869257746194
N        -6.47383863777747   -1.56379846688447    1.03727454629124
C        -4.58888963322567   -0.42381428537500    0.14051378296200
C        -5.39345645866115    0.45042149484692   -0.66020896527617
C        -4.99929320184400    0.79055828866071   -1.97247566570556
C        -5.94767627995270    1.63010159233368   -2.49590377463846
C        -6.96002191531282    1.81712688370125   -1.52427182872472
N        -6.60351989757389    1.06454463579093   -0.42910677401097
C        -8.09712049305767    2.62086035187514   -1.78427330713000
C        -9.40077486541957    2.32403620413342   -1.41779436528273
N        -9.64269403152898    1.21653187527477   -0.70219718804512
H       -10.79269201797326    3.91327766065527   -2.29039722830822
H       -12.69423654561106    2.45580671266060   -1.16673446478525
H       -12.55381112335612   -0.03867752590005    0.34370448150976
H       -12.10749018260502   -2.71065180397576    0.03240222611104
H       -10.25621698320277   -4.31924304564989    1.04730442797788
H        -8.94830676159657   -0.35376180013026    1.47971531379121
H        -8.18789377913391   -3.85849626366110    2.73798823087203
H        -5.37303068307222   -4.04864363849576    2.96146015747369
H        -3.42259220631832   -2.59635088781226    1.84489783621047
H        -4.14002556586624    0.40257279997405   -2.47779872427073
H        -5.95011564919958    2.00851022720383   -3.49608458129946
H        -7.11606611969971    1.04449176405234    0.43093006578395
H        -7.94124004791601    3.49105216645999   -2.41568644005858
80
 energy: -134.848017197275 gnorm: 0.040896100881 xtb: 6.4.1 (bd6e46d)
C         5.41201278595093    3.83745456838976    0.79644805164265
C         4.43658014105952    2.90836383279124    0.66419654908521
C         5.10922295999690    1.66892456330180    0.29620382513986
C         4.55987889150207    0.42303199060035   -0.05618740773856
C         5.38964559003789   -0.64347045375117   -0.53677130328897
C         4.99050357958852   -1.46554104925041   -1.60493992937319
C         5.96549958536360   -2.41010529002927   -1.80359277494602
C         6.99504705918774   -2.17747573334333   -0.87013874791044
N         6.64033618238316   -1.06113300283197   -0.14839071966887
C         8.14366915269166   -2.99857259817815   -0.80113833392423
C         9.43374764916349   -2.55365152973407   -0.58750969356429
C        10.69868681382275   -3.28913049518468   -0.62716374248702
C        11.67328727526965   -2.36342704910126   -0.48410128403382
C        10.98819209159086   -1.07483683045818   -0.36722459188223
N         9.65903344352925   -1.24144576255537   -0.41767529968317
C        11.49696796721346    0.18975629910581   -0.11466335757776
C        10.72598199425541    1.29625264842894    0.28960909166018
C        11.20638712201111    2.23045533791666    1.23604970243631
C        10.23518466324469    3.17432896062454    1.43010427269952
C         9.13236118226953    2.84295435209258    0.60903759090156
N         9.44365505085852    1.66951926960272   -0.03148431184181
C         7.96082748015359    3.62628489276175    0.59095031301711
C         6.66715472020710    3.14666988786865    0.50437010727675
N         6.43361900102843    1.84971594668081    0.22117107211227
H         5.30691580188766    4.85991421408853    1.11075584444305
H         3.37585025886069    3.03191723406493    0.78236897336530
H         4.11151711168077   -1.30370583812641   -2.19158428577249
H         6.00656623176176   -3.14120352454107   -2.58307556004835
H         7.18088960420205   -0.67177051532652    0.60442980549992
H         7.99276196850402   -4.03311654250797   -1.08814441672663
H        10.81013888174515   -4.34987459334292   -0.75931502279012
H        12.73279180447149   -2.53274188053957   -0.41275871278878
H        12.57467509385750    0.33059689644067   -0.07607269670243
H        12.12872391280864    2.13200656032735    1.76867047113928
H        10.24181733270487    3.97045162251909    2.14478391483397
H         8.85642289336079    1.20211936592226   -0.70054492904317
H         8.10896124609021    4.68215938968885    0.81215297398562
C         3.17392389202928    0.23985797610276   -0.06379170268903
C         1.95547222679917    0.09220182501956   -0.01760816774366
C         0.62109734222308   -0.04717841246300    0.04758117958349
C        -0.60586206342365   -0.16366540650205    0.06625155828126
C        -1.94607161949548   -0.26659449853216    0.06134214237521
C        -3.17046566877856   -0.35344861031778    0.04471816323395
C       -10.63919906242012    2.99001176520926   -1.69209105344175
C       -11.61480547581048    2.25188805948561   -1.12028358577579
C       -10.94144697601041    1.12766719311181   -0.45932966396839
C       -11.48208006756855    0.03409370073601    0.19420562751723
C       -10.75401479581973   -1.09260272395808    0.64210735676568
C       -11.22928927520262   -2.42041692895927    0.54511264452523
C       -10.27362759757605   -3.25287397085747    1.07252058471716
C        -9.19028894403066   -2.45584538385847    1.50491360703894
N        -9.49878799965666   -1.15787598874439    1.19130556103826
C        -8.02550440938784   -2.99172811477246    2.10098592265877
C        -6.73666877559624   -2.56241718199799    1.86734151925995
C        -5.48130612967808   -3.16917450955271    2.31169682825096
C        -4.49274505463327   -2.44067366655542    1.74678269984080
C        -5.15612005579588   -1.39807026311296    0.96758399738668
N        -6.48517962411429   -1.50194868102139    1.06546964446091
C        -4.57071171325682   -0.41494720226739    0.14380712325311
C        -5.36229244929416    0.45536224076451   -0.67668947400158
C        -4.96382365920712    0.81924067743607   -1.97904861733599
C        -5.91625409658490    1.65656617278638   -2.50342517576171
C        -6.93830430894257    1.81725978414660   -1.54191937260052
N        -6.58506734126717    1.04573107124661   -0.45804053786255
C        -8.08695412050642    2.61033410869779   -1.77966642659848
C        -9.37648611765784    2.31337695012263   -1.36916153694545
N        -9.60911962608242    1.21777933857620   -0.63090796807226
H       -10.75988205791315    3.88524724916463   -2.27835230614344
H       -12.67409478800853    2.42981868473838   -1.15572834930918
H       -12.56475154151557   -0.05917068702217    0.28052246429802
H       -12.13210719967324   -2.71067177250241    0.05220355495756
H       -10.27585605204145   -4.32342563470834    1.07458472616315
H        -8.93014041839607   -0.36336424299704    1.42062660988894
H        -8.17910567736011   -3.89423179233053    2.68559881223104
H        -5.38955961437045   -4.03188970176682    2.94704066488390
H        -3.43255619865755   -2.58555559592737    1.83104005924795
H        -4.10627374868871    0.42364738648933   -2.47969739854326
H        -5.94134822265045    2.04045513614671   -3.50176745414037
H        -7.11764699231586    0.99271677565127    0.39136094311465
H        -7.94020944597945    3.45284173068108   -2.45204964148538
80
 energy: -134.868636541320 gnorm: 0.033956702176 xtb: 6.4.1 (bd6e46d)
C         5.43123029557619    3.81173764483356    0.77439466020650
C         4.45432661659944    2.88307157632233    0.66331491059394
C         5.12497485216358    1.64122908611341    0.29874040482574
C         4.54506908349541    0.41012201203525   -0.06283515159747
C         5.35566662452579   -0.66389992996698   -0.55715502706943
C         4.94380159189932   -1.50910903754753   -1.60314975134213
C         5.92181133371442   -2.44917043585659   -1.80173213489123
C         6.96666613857404   -2.19389628432542   -0.89049984289162
N         6.61189283525664   -1.06809358830691   -0.18706994968028
C         8.12558991843348   -2.99369404758793   -0.81384390357748
C         9.40411440769130   -2.52778435260947   -0.57166884161125
C        10.66851352793466   -3.26174742201183   -0.61865475708950
C        11.64230782237273   -2.33409228469230   -0.49524676728207
C        10.95464433522686   -1.05010486454825   -0.36168819441509
N         9.62639512516274   -1.21462557438377   -0.40001784626905
C        11.49800844080737    0.19568780258506   -0.08578488730929
C        10.74989674211722    1.31483387697689    0.30728828051030
C        11.24330197909008    2.27565744613157    1.22283853824365
C        10.27162514546675    3.21473918369170    1.41670042275892
C         9.15087268784431    2.85872360390344    0.62704507366078
N         9.46159117836254    1.67677841225932    0.00694881808581
C         7.96687374962672    3.61428665766345    0.61738200594345
C         6.68257316886755    3.11374962111562    0.49440183371219
N         6.44829065892711    1.81621687711471    0.21682822370674
H         5.33276528989500    4.84133040619489    1.06983431299924
H         3.39404535389745    3.00837639659040    0.78984490288196
H         4.06024507134040   -1.34519026969623   -2.18368865389432
H         5.97346968588389   -3.18626423759413   -2.57561721433126
H         7.17634696286746   -0.64478084576350    0.53983234399005
H         7.99602375943135   -4.02069029070748   -1.13326894022267
H        10.77942174102014   -4.32405967170802   -0.74370326111607
H        12.70504580392163   -2.49406431263130   -0.44475845853356
H        12.57397712659035    0.30413407875042   -0.00554189671520
H        12.17109674726873    2.17360947265475    1.74562252628302
H        10.27046982182297    4.01761759535971    2.12391674390184
H         8.85264595024606    1.17670349639575   -0.63071699913248
H         8.09403736450243    4.65913291527777    0.88542378791779
C         3.16171317341793    0.24647394018131   -0.06925086598057
C         1.94403730978789    0.10653215622777   -0.00300144835273
C         0.61510934873665   -0.05624213198690    0.00704788006980
C        -0.61070334866849   -0.16686275899244    0.04037500749540
C        -1.94641498524108   -0.26303277901347    0.06725817964185
C        -3.16948981339187   -0.35040501424701    0.03361606579507
C       -10.60415166693445    2.97089749139755   -1.65534801924382
C       -11.58219853379909    2.23599905700090   -1.08598808279746
C       -10.90722194661694    1.12802899175320   -0.40779145901948
C       -11.48032931072561    0.01761664319615    0.19159116351894
C       -10.76949272628896   -1.10958964183338    0.64096069131946
C       -11.26087231125342   -2.43370269510195    0.57785389430157
C       -10.30611794064644   -3.26445469492322    1.10202209134259
C        -9.20426576843429   -2.47269528011227    1.49878996412786
N        -9.50458505742446   -1.18176081053108    1.16156106211581
C        -8.03155669005348   -2.98942649487503    2.08409302944299
C        -6.75138630898542   -2.51019639008857    1.88146845391072
C        -5.50077691514822   -3.13214065979240    2.31130695496240
C        -4.50911325254416   -2.40769440334053    1.75023580704180
C        -5.17018330075083   -1.35091589001497    0.98910930993093
N        -6.49813650997040   -1.43067374617904    1.10357871179489
C        -4.56089064492821   -0.40278555526998    0.14046214593457
C        -5.33339772190471    0.46117313513780   -0.70069656394846
C        -4.92160075179772    0.85346757645376   -1.99048229781215
C        -5.87779983281010    1.68557219750659   -2.51395900235060
C        -6.91367606443981    1.81441174485491   -1.56274307030495
N        -6.56495080333293    1.02546528166043   -0.49328561122350
C        -8.07052111216499    2.59236728543781   -1.77898507282470
C        -9.34411677526293    2.30513394960545   -1.31217939077442
N        -9.57291973848683    1.22704170297296   -0.54507805152115
H       -10.71648727881002    3.85430216816739   -2.26104497097424
H       -12.64518562633684    2.39861680661740   -1.13723951446966
H       -12.56619339927730   -0.07911452694749    0.21037600968407
H       -12.17097742364644   -2.71591381713149    0.09005307889644
H       -10.30812169868924   -4.33476889629327    1.11591740264444
H        -8.91149179591248   -0.38212367256146    1.34462808466517
H        -8.16189557860227   -3.92257761359764    2.62528458785156
H        -5.41327866071930   -4.00841233939817    2.92998389345228
H        -3.44757451383549   -2.56619707371159    1.81491934497021
H        -4.05591420370467    0.46159133959765   -2.48274781339728
H        -5.91847815450556    2.08632027981579   -3.50652429617751
H        -7.12325514933532    0.92836720014650    0.34505603716086
H        -7.94476645498723    3.40583922618000   -2.48894763214920
80
 energy: -134.885594196902 gnorm: 0.031040313901 xtb: 6.4.1 (bd6e46d)
C         5.44914304732092    3.78233991887757    0.75941717221132
C         4.47176362223814    2.85654908133259    0.65902476684547
C         5.14049124923879    1.61236413445249    0.30067365670203
C         4.54123837541670    0.39410768194391   -0.06700203171828
C         5.32924090714338   -0.68423059210095   -0.57739186109880
C         4.89783801513336   -1.55130963998949   -1.60204482638203
C         5.87715338720643   -2.48664114843732   -1.80279608155395
C         6.93965669177464   -2.20576549631521   -0.91461558937086
N         6.58917939761956   -1.07387802988044   -0.22582174194089
C         8.10722896606852   -2.98321641576569   -0.83639530344791
C         9.37410230230759   -2.50193061243394   -0.56484835812278
C        10.63789883977498   -3.23361425283863   -0.61585845145617
C        11.60946813007897   -2.30650615975646   -0.49886022649518
C        10.92332056546752   -1.02567321321619   -0.34882648688972
N         9.59604849390159   -1.18869008068338   -0.38389307140068
C        11.49496377314357    0.20169854781472   -0.04806850141215
C        10.76946904004577    1.33264852944778    0.33148431059670
C        11.27953232347569    2.32110990868454    1.21483264707816
C        10.30749852074589    3.25483157764741    1.40834670895231
C         9.16863070475273    2.86971199429818    0.65026368763665
N         9.47687932243404    1.68094598556395    0.04955216237262
C         7.97450977750642    3.59768423905598    0.65085402571950
C         6.69903610436407    3.08114451590604    0.49092538533087
N         6.46353842341537    1.78477372182901    0.21546255119844
H         5.35773474203187    4.81959452807955    1.03138040861309
H         3.41239445798647    2.98191476203386    0.79199654501092
H         4.00035085155832   -1.39887067734041   -2.16681802467000
H         5.92640721258729   -3.23958777068586   -2.56281051034850
H         7.16999159858767   -0.62341637156394    0.47452315848394
H         8.00329822714521   -4.00585385312568   -1.17181604404283
H        10.74589485182322   -4.29713835601706   -0.73453399457428
H        12.67498331085952   -2.45611463831025   -0.47202524229109
H        12.56817723292656    0.27409781595227    0.05912507234750
H        12.22223450295239    2.23042268140570    1.71509061403912
H        10.30948988356740    4.07651498037275    2.09527583270275
H         8.85474046469160    1.15579077613009   -0.55816523081945
H         8.07361193269176    4.63262203806967    0.95355874198883
C         3.15354213241423    0.24820635668428   -0.10361006113579
C         1.93846012155894    0.09933119594745   -0.05787141247648
C         0.60747132994280   -0.02145208196345    0.05174398580237
C        -0.61460957860656   -0.15879957750663    0.03688782722465