      -----------------------------------------------------------      
     |                   =====================                   |     
     |                           x T B                           |     
     |                   =====================                   |     
     |                         S. Grimme                         |     
     |          Mulliken Center for Theoretical Chemistry        |     
     |                    University of Bonn                     |     
      -----------------------------------------------------------      

   * xtb version 6.4.1 (bd6e46d) compiled by 'conda@4901f00b25ba' on 2021-06-10

   xtb is free software: you can redistribute it and/or modify it under
   the terms of the GNU Lesser General Public License as published by
   the Free Software Foundation, either version 3 of the License, or
   (at your option) any later version.
   
   xtb is distributed in the hope that it will be useful,
   but WITHOUT ANY WARRANTY; without even the implied warranty of
   MERCHANTABILITY or FITNESS FOR A PARTICULAR PURPOSE.  See the
   GNU Lesser General Public License for more details.
   
   Cite this work as:
   * C. Bannwarth, E. Caldeweyher, S. Ehlert, A. Hansen, P. Pracht,
     J. Seibert, S. Spicher, S. Grimme, WIREs Comput. Mol. Sci., 2020, 11,
     e01493. DOI: 10.1002/wcms.1493
   
   for GFN2-xTB:
   * C. Bannwarth, S. Ehlert and S. Grimme., J. Chem. Theory Comput., 2019,
     15, 1652-1671. DOI: 10.1021/acs.jctc.8b01176
   for GFN1-xTB:
   * S. Grimme, C. Bannwarth, P. Shushkov, J. Chem. Theory Comput., 2017,
     13, 1989-2009. DOI: 10.1021/acs.jctc.7b00118
   for GFN0-xTB:
   * P. Pracht, E. Caldeweyher, S. Ehlert, S. Grimme, ChemRxiv, 2019, preprint.
     DOI: 10.26434/chemrxiv.8326202.v1
   for GFN-FF:
   * S. Spicher and S. Grimme, Angew. Chem. Int. Ed., 2020, 59, 15665-15673.
     DOI: 10.1002/anie.202004239
   
   for DFT-D4:
   * E. Caldeweyher, C. Bannwarth and S. Grimme, J. Chem. Phys., 2017,
     147, 034112. DOI: 10.1063/1.4993215
   * E. Caldeweyher, S. Ehlert, A. Hansen, H. Neugebauer, S. Spicher,
     C. Bannwarth and S. Grimme, J. Chem. Phys., 2019, 150, 154122.
     DOI: 10.1063/1.5090222
   * E. Caldeweyher, J.-M. Mewes, S. Ehlert and S. Grimme, Phys. Chem. Chem. Phys.
     2020, 22, 8499-8512. DOI: 10.1039/D0CP00502A
   
   for sTDA-xTB:
   * S. Grimme and C. Bannwarth, J. Chem. Phys., 2016, 145, 054103.
     DOI: 10.1063/1.4959605
   
   in the mass-spec context:
   * V. Asgeirsson, C. Bauer and S. Grimme, Chem. Sci., 2017, 8, 4879.
     DOI: 10.1039/c7sc00601b
   * J. Koopman and S. Grimme, ACS Omega 2019, 4, 12, 15120-15133.
     DOI: 10.1021/acsomega.9b02011
   
   for metadynamics refer to:
   * S. Grimme, J. Chem. Theory Comput., 2019, 155, 2847-2862
     DOI: 10.1021/acs.jctc.9b00143
   
   for SPH calculations refer to:
   * S. Spicher and S. Grimme, J. Chem. Theory Comput., 2021, 17, 1701-1714
     DOI: 10.1021/acs.jctc.0c01306
   
   with help from (in alphabetical order)
   P. Atkinson, C. Bannwarth, F. Bohle, G. Brandenburg, E. Caldeweyher
   M. Checinski, S. Dohm, S. Ehlert, S. Ehrlich, I. Gerasimov, J. Koopman
   C. Lavigne, S. Lehtola, F. März, M. Müller, F. Musil, H. Neugebauer
   J. Pisarek, C. Plett, P. Pracht, J. Seibert, P. Shushkov, S. Spicher
   M. Stahn, M. Steiner, T. Strunk, J. Stückrath, T. Rose, and J. Unsleber
   
 * started run on 2021/11/19 at 08:08:03.545     

           -------------------------------------------------
          |                Calculation Setup                |
           -------------------------------------------------

          program call               : /home/jeff/miniconda3/bin/xtb input_structure_1.xyz --gfn 2 --ohess normal --parallel 1 --etemp 300 --chrg 0 --uhf 0 -I det_control.in
          hostname                   : jelfscompute1
          coordinate file            : input_structure_1.xyz
          omp threads                :                     1
          number of atoms            :                   365
          number of electrons        :                  1202
          charge                     :                     0
          spin                       :                   0.0
          first test random number   :      0.58925043087144

   ID    Z sym.   atoms
    1   30 Zn     1, 37, 121, 156, 191, 226, 261, 296, 331
    2    6 C      2-9, 11-15, 17-21, 23, 24, 38-45, 47-51, 53-57, 59, 60,
                  73-120, 122-129, 131-135, 137-141, 143, 144, 157-164,
                  166-170, 172-176, 178, 179, 192-199, 201-205, 207-211, 213,
                  214, 227-234, 236-240, 242-246, 248, 249, 262-269, 271-275,
                  277-281, 283, 284, 297-304, 306-310, 312-316, 318, 319,
                  332-339, 341-345, 347-351, 353, 354
    3    7 N      10, 16, 22, 25, 46, 52, 58, 61, 130, 136, 142, 145, 165,
                  171, 177, 180, 200, 206, 212, 215, 235, 241, 247, 250, 270,
                  276, 282, 285, 305, 311, 317, 320, 340, 346, 352, 355
    4    1 H      26-36, 62-72, 146-155, 181-190, 216-225, 251-260, 286-295,
                  321-330, 356-365

molecular fragmentation (1/2 indicates fragments):
111111111111111111111111111111111111222222222222222222222222222222222222
222222222222222222222222222222222222222222222222222222222222222222222222
222222222222222222222222222222222222222222222222222222222222222222222222
222222222222222222222222222222222222222222222222222222222222222222222222
222222222222222222222222222222222222222222222222222222222222222222222222
22222
# atoms in fragment 1/2:    36   329
 fragment masses (1/2) :      372.71     3551.11
CMA distance (Bohr)    : 134.042
constraining FC (au)   :  0.0500

           -------------------------------------------------
          |                 G F N 2 - x T B                 |
           -------------------------------------------------

        Reference                      10.1021/acs.jctc.8b01176
      * Hamiltonian:
        H0-scaling (s, p, d)           1.850000    2.230000    2.230000
        zeta-weighting                 0.500000
      * Dispersion:
        s8                             2.700000
        a1                             0.520000
        a2                             5.000000
        s9                             5.000000
      * Repulsion:
        kExp                           1.500000    1.000000
        rExp                           1.000000
      * Coulomb:
        alpha                          2.000000
        third order                    shell-resolved
        anisotropic                    true
        a3                             3.000000
        a5                             4.000000
        cn-shift                       1.200000
        cn-exp                         4.000000
        max-rad                        5.000000


          ...................................................
          :                      SETUP                      :
          :.................................................:
          :  # basis functions                1184          :
          :  # atomic orbitals                1184          :
          :  # shells                          638          :
          :  # electrons                      1202          :
          :  max. iterations                   250          :
          :  Hamiltonian                  GFN2-xTB          :
          :  restarted?                      false          :
          :  GBSA solvation                  false          :
          :  PC potential                    false          :
          :  electronic temp.          300.0000000     K    :
          :  accuracy                    1.0000000          :
          :  -> integral cutoff          0.2500000E+02      :
          :  -> integral neglect         0.1000000E-07      :
          :  -> SCF convergence          0.1000000E-05 Eh   :
          :  -> wf. convergence          0.1000000E-03 e    :
          :  Broyden damping             0.4000000          :
          ...................................................

 iter      E             dE          RMSdq      gap      omega  full diag
   1   -652.7725812 -0.652773E+03  0.737E+00    0.08       0.0  T
   2   -575.3649517  0.774076E+02  0.588E+00    0.01       1.0  T
   3    714.8415966  0.129021E+04  0.207E+01    0.02       1.0  T
   4   -336.6092612 -0.105145E+04  0.958E+00    0.01       1.0  T
   5    165.7880905  0.502397E+03  0.183E+01    0.02       1.0  T
   6   -467.1149983 -0.632903E+03  0.743E+00    0.00       1.0  T
   7   -431.0682734  0.360467E+02  0.689E+00    0.02       1.0  T
   8   -636.5595473 -0.205491E+03  0.390E+00    0.01       1.0  T
   9   -634.5838928  0.197565E+01  0.339E+00    0.16       1.0  T
  10   -613.8982916  0.206856E+02  0.393E+00    0.12       1.0  T
  11   -642.1052903 -0.282070E+02  0.289E+00    0.05       1.0  T
  12   -641.1810545  0.924236E+00  0.279E+00    0.10       1.0  T
  13   -651.0708321 -0.988978E+01  0.239E+00    0.09       1.0  T
  14   -654.2559301 -0.318510E+01  0.202E+00    0.02       1.0  T
  15   -654.3267516 -0.708215E-01  0.193E+00    0.04       1.0  T
  16   -655.3973873 -0.107064E+01  0.171E+00    0.09       1.0  T
  17   -655.0361388  0.361249E+00  0.168E+00    0.10       1.0  T
  18   -655.4321159 -0.395977E+00  0.156E+00    0.01       1.0  T
  19   -655.6092870 -0.177171E+00  0.134E+00    0.08       1.0  T
  20   -655.7692158 -0.159929E+00  0.104E+00    0.14       1.0  T
  21   -655.5168583  0.252358E+00  0.920E-01    0.01       1.0  T
  22   -655.9471953 -0.430337E+00  0.765E-01    0.17       1.0  T
  23   -655.7026955  0.244500E+00  0.711E-01    0.01       1.0  T
  24   -655.9954973 -0.292802E+00  0.570E-01    0.08       1.0  T
  25   -655.9907662  0.473109E-02  0.477E-01    0.08       1.0  T
  26   -655.9726278  0.181383E-01  0.466E-01    0.07       1.0  T
  27   -655.9641307  0.849717E-02  0.419E-01    0.07       1.0  T
  28   -656.0061908 -0.420601E-01  0.367E-01    0.08       1.0  T
  29   -656.0169187 -0.107279E-01  0.333E-01    0.07       1.0  T
  30   -656.0463733 -0.294547E-01  0.285E-01    0.09       1.0  T
  31   -656.0621738 -0.158004E-01  0.267E-01    0.10       1.0  T
  32   -656.0580534  0.412036E-02  0.265E-01    0.09       1.0  T
  33   -656.0667118 -0.865841E-02  0.255E-01    0.09       1.0  T
  34   -656.0698589 -0.314707E-02  0.246E-01    0.09       1.0  T
  35   -656.0928925 -0.230336E-01  0.209E-01    0.11       1.0  T
  36   -656.1035228 -0.106303E-01  0.180E-01    0.10       1.0  T
  37   -656.1068137 -0.329084E-02  0.170E-01    0.10       1.0  T
  38   -656.1101121 -0.329842E-02  0.151E-01    0.10       1.0  T
  39   -656.1144335 -0.432146E-02  0.122E-01    0.11       1.0  T
  40   -656.1184399 -0.400636E-02  0.103E-01    0.10       1.0  T
  41   -656.1198768 -0.143692E-02  0.956E-02    0.09       1.0  T
  42   -656.1208132 -0.936366E-03  0.883E-02    0.09       1.0  T
  43   -656.1215934 -0.780187E-03  0.781E-02    0.09       1.0  T
  44   -656.1220137 -0.420331E-03  0.669E-02    0.07       1.0  T
  45   -656.1226040 -0.590269E-03  0.594E-02    0.07       1.0  T
  46   -656.1229357 -0.331709E-03  0.544E-02    0.07       1.0  T
  47   -656.1229452 -0.949717E-05  0.482E-02    0.07       1.0  T
  48   -656.1231413 -0.196108E-03  0.428E-02    0.08       1.0  T
  49   -656.1232582 -0.116925E-03  0.400E-02    0.08       1.0  T
  50   -656.1233631 -0.104862E-03  0.378E-02    0.08       1.0  T
  51   -656.1235120 -0.148988E-03  0.344E-02    0.08       1.0  T
  52   -656.1235705 -0.584059E-04  0.328E-02    0.08       1.0  T
  53   -656.1236597 -0.892194E-04  0.297E-02    0.08       1.0  T
  54   -656.1236979 -0.382135E-04  0.265E-02    0.08       1.0  T
  55   -656.1237549 -0.569903E-04  0.242E-02    0.07       1.0  T
  56   -656.1238298 -0.748861E-04  0.216E-02    0.08       1.0  T
  57   -656.1239099 -0.800974E-04  0.190E-02    0.08       1.0  T
  58   -656.1239960 -0.861441E-04  0.159E-02    0.08       1.0  T
  59   -656.1241259 -0.129902E-03  0.101E-02    0.08       1.0  T
  60   -656.1241450 -0.191132E-04  0.889E-03    0.08       1.0  T
  61   -656.1241802 -0.352264E-04  0.625E-03    0.08       1.0  T
  62   -656.1241947 -0.144371E-04  0.498E-03    0.08       1.1  T
  63   -656.1242037 -0.902159E-05  0.374E-03    0.08       1.4  T
  64   -656.1242072 -0.346292E-05  0.313E-03    0.08       1.7  T
  65   -656.1242097 -0.251929E-05  0.230E-03    0.08       2.3  T
  66   -656.1242108 -0.113689E-05  0.186E-03    0.08       2.8  T
  67   -656.1242115 -0.716808E-06  0.152E-03    0.08       3.5  T
  68   -656.1242126 -0.102647E-05  0.836E-04    0.08       6.3  T
  69   -656.1242129 -0.302435E-06  0.521E-04    0.08      10.0  T
  70   -656.1242129  0.313207E-08  0.492E-04    0.08      10.6  T

   *** convergence criteria satisfied after 70 iterations ***

         #    Occupation            Energy/Eh            Energy/eV
      -------------------------------------------------------------
         1        2.0000           -0.6840989             -18.6153
       ...           ...                  ...                  ...
       595        2.0000           -0.3497548              -9.5173
       596        2.0000           -0.3497178              -9.5163
       597        2.0000           -0.3496452              -9.5143
       598        2.0000           -0.3463918              -9.4258
       599        1.9987           -0.3428424              -9.3292
       600        1.9446           -0.3392741              -9.2321
       601        1.5255           -0.3370026              -9.1703 (HOMO)
       602        0.2690           -0.3341244              -9.0920 (LUMO)
       603        0.2616           -0.3340941              -9.0912
       604        0.0006           -0.3282562              -8.9323
       605        0.0000           -0.3245403              -8.8312
       606        0.0000           -0.3208747              -8.7314
       ...           ...                  ...                  ...
      1184                          2.2677117              61.7076
      -------------------------------------------------------------
                  HL-Gap            0.0028782 Eh            0.0783 eV
             Fermi-level           -0.3358932 Eh           -9.1401 eV

 SCC (total)                   0 d,  0 h,  0 min, 36.705 sec
 SCC setup                      ...        0 min,  0.024 sec (  0.066%)
 Dispersion                     ...        0 min,  0.050 sec (  0.136%)
 classical contributions        ...        0 min,  0.003 sec (  0.009%)
 integral evaluation            ...        0 min,  0.343 sec (  0.934%)
 iterations                     ...        0 min, 35.492 sec ( 96.697%)
 molecular gradient             ...        0 min,  0.723 sec (  1.971%)
 printout                       ...        0 min,  0.069 sec (  0.188%)

         :::::::::::::::::::::::::::::::::::::::::::::::::::::
         ::                     SUMMARY                     ::
         :::::::::::::::::::::::::::::::::::::::::::::::::::::
         :: total energy            -641.484258608938 Eh    ::
         :: gradient norm              2.613594628305 Eh/a0 ::
         :: HOMO-LUMO gap              0.078320968578 eV    ::
         ::.................................................::
         :: SCC energy              -656.124212867486 Eh    ::
         :: -> isotropic ES            0.617734765829 Eh    ::
         :: -> anisotropic ES          0.066113059230 Eh    ::
         :: -> anisotropic XC          0.443390072485 Eh    ::
         :: -> dispersion             -0.571198922043 Eh    ::
         :: repulsion energy          14.642036845745 Eh    ::
         :: add. restraining           0.000000000000 Eh    ::
         :: total charge              -0.000000000002 e     ::
         :::::::::::::::::::::::::::::::::::::::::::::::::::::

      ----------------------------------------------------------- 
     |                   =====================                   |
     |                        A N C O P T                        |
     |                   =====================                   |
     |               Approximate Normal Coordinate               |
     |                Rational Function Optimizer                |
      ----------------------------------------------------------- 

          ...................................................
          :                      SETUP                      :
          :.................................................:
          :   optimization level            normal          :
          :   max. optcycles                  1095          :
          :   ANC micro-cycles                  20          :
          :   degrees of freedom              1089          :
          :.................................................:
          :   RF solver                   davidson          :
          :   write xtbopt.log                true          :
          :   linear?                        false          :
          :   energy convergence         0.5000000E-05 Eh   :
          :   grad. convergence          0.1000000E-02 Eh/α :
          :   maximium RF displ.         1.0000000          :
          :   Hlow (freq-cutoff)         0.1000000E-01      :
          :   Hmax (freq-cutoff)         5.0000000          :
          :   S6 in model hess.         20.0000000          :
          ...................................................

generating ANC from model Hessian ...
Using Lindh-Hessian (1995)
 Shifting diagonal of input Hessian by    1.0134379842404673E-002
 Lowest  eigenvalues of input Hessian
    0.010000    0.010034    0.010099    0.010100    0.010100    0.010100
    0.010100    0.010100    0.010100    0.010103    0.010107    0.010110
    0.010113    0.010116    0.010117    0.010121    0.010121    0.010122
 Highest eigenvalues
    3.495768    3.495768    3.495769    3.495769    3.495770    3.495770


........................................................................
.............................. CYCLE    1 ..............................
........................................................................
   1   -656.1242129 -0.656124E+03  0.335E-04    0.08       0.0  T
   2   -656.1242126  0.301501E-06  0.587E-04    0.08       8.9  T
   3   -656.1242114  0.124436E-05  0.102E-03    0.08       5.1  T
   4   -656.1242120 -0.552465E-06  0.822E-04    0.08       6.4  T
     SCC iter.                  ...        0 min,  2.031 sec
     gradient                   ...        0 min,  0.729 sec
 * total energy  :  -641.4842577 Eh     change        0.9156411E-06 Eh
   gradient norm :     2.6135919 Eh/α   predicted     0.0000000E+00 (-100.00%)
   displ. norm   :     0.6873318 α      lambda       -0.1721803E+01
   maximum displ.:     0.2643019 α      in ANC's #863, #1066, #705, ...

........................................................................
.............................. CYCLE    2 ..............................
........................................................................
   1   -656.2061176 -0.656206E+03  0.342E-01    0.14       0.0  T
   2   -655.0364443  0.116967E+01  0.996E-01    0.10       1.0  T
   3   -656.1400956 -0.110365E+01  0.384E-01    0.30       1.0  T
   4   -656.2156544 -0.755588E-01  0.244E-01    0.16       1.0  T
   5   -655.9345761  0.281078E+00  0.673E-01    0.09       1.0  T
   6   -655.9643158 -0.297398E-01  0.413E-01    0.07       1.0  T
   7   -655.5741989  0.390117E+00  0.642E-01    0.15       1.0  T
   8   -656.2290807 -0.654882E+00  0.158E-01    0.11       1.0  T
   9   -656.2162817  0.127990E-01  0.186E-01    0.09       1.0  T
  10   -656.2351772 -0.188955E-01  0.104E-01    0.12       1.0  T
  11   -656.2404333 -0.525609E-02  0.740E-02    0.10       1.0  T
  12   -656.2449128 -0.447955E-02  0.495E-02    0.10       1.0  T
  13   -656.2474140 -0.250115E-02  0.333E-02    0.09       1.0  T
  14   -656.2472424  0.171538E-03  0.338E-02    0.08       1.0  T
  15   -656.2485960 -0.135355E-02  0.135E-02    0.09       1.0  T
  16   -656.2486811 -0.851843E-04  0.944E-03    0.09       1.0  T
  17   -656.2487356 -0.544873E-04  0.793E-03    0.09       1.0  T
  18   -656.2487508 -0.151748E-04  0.694E-03    0.09       1.0  T
  19   -656.2487681 -0.172785E-04  0.509E-03    0.09       1.0  T
  20   -656.2487844 -0.163038E-04  0.202E-03    0.09       2.6  T
  21   -656.2487882 -0.385521E-05  0.723E-04    0.09       7.2  T
  22   -656.2487879  0.340400E-06  0.701E-04    0.09       7.5  T
  23   -656.2487884 -0.502890E-06  0.410E-04    0.09      12.8  T
     SCC iter.                  ...        0 min, 11.712 sec
     gradient                   ...        0 min,  0.731 sec
 * total energy  :  -642.7133127 Eh     change       -0.1229055E+01 Eh
   gradient norm :     1.2177453 Eh/α   predicted    -0.1267617E+01 (   3.14%)
   displ. norm   :     0.6416160 α      lambda       -0.7187632E+00
   maximum displ.:     0.2414034 α      in ANC's #863, #379, #1036, ...

........................................................................
.............................. CYCLE    3 ..............................
........................................................................
   1   -656.2267418 -0.656227E+03  0.310E-01    0.07       0.0  T
   2   -656.1398543  0.868874E-01  0.381E-01    0.02       1.0  T
   3   -654.7907719  0.134908E+01  0.107E+00    0.13       1.0  T
   4   -656.1452847 -0.135451E+01  0.374E-01    0.22       1.0  T
   5   -656.0587654  0.865193E-01  0.427E-01    0.03       1.0  T
   6   -656.1790873 -0.120322E+00  0.329E-01    0.09       1.0  T
   7   -656.1768626  0.222472E-02  0.302E-01    0.29       1.0  T
   8   -656.2136697 -0.368072E-01  0.181E-01    0.18       1.0  T
   9   -656.1515763  0.620934E-01  0.265E-01    0.01       1.0  T
  10   -656.2277441 -0.761678E-01  0.124E-01    0.06       1.0  T
  11   -656.2470158 -0.192717E-01  0.577E-02    0.09       1.0  T
  12   -656.2493874 -0.237166E-02  0.425E-02    0.08       1.0  T
  13   -656.2488303  0.557154E-03  0.456E-02    0.08       1.0  T
  14   -656.2480542  0.776106E-03  0.473E-02    0.08       1.0  T
  15   -656.2506441 -0.258992E-02  0.208E-02    0.07       1.0  T
  16   -656.2507535 -0.109407E-03  0.197E-02    0.07       1.0  T
  17   -656.2509376 -0.184107E-03  0.153E-02    0.07       1.0  T
  18   -656.2509691 -0.315167E-04  0.127E-02    0.07       1.0  T
  19   -656.2510281 -0.589307E-04  0.912E-03    0.07       1.0  T
  20   -656.2510482 -0.201536E-04  0.683E-03    0.07       1.0  T
  21   -656.2510642 -0.160070E-04  0.500E-03    0.08       1.0  T
  22   -656.2510675 -0.330728E-05  0.366E-03    0.07       1.4  T
  23   -656.2510717 -0.422024E-05  0.225E-03    0.08       2.3  T
  24   -656.2510763 -0.458320E-05  0.740E-04    0.08       7.1  T
  25   -656.2510762  0.156674E-06  0.697E-04    0.08       7.5  T
  26   -656.2510766 -0.459371E-06  0.316E-04    0.08      16.6  T
     SCC iter.                  ...        0 min, 13.094 sec
     gradient                   ...        0 min,  0.774 sec
 * total energy  :  -643.2713711 Eh     change       -0.5580583E+00 Eh
   gradient norm :     0.6546179 Eh/α   predicted    -0.5073287E+00 (  -9.09%)
   displ. norm   :     0.6747447 α      lambda       -0.3870761E+00
   maximum displ.:     0.2393886 α      in ANC's #379, #863, #705, ...

........................................................................
.............................. CYCLE    4 ..............................
........................................................................
   1   -656.3297546 -0.656330E+03  0.276E-01    0.08       0.0  T
   2   -655.9070584  0.422696E+00  0.644E-01    0.04       1.0  T
   3   -656.2356874 -0.328629E+00  0.357E-01    0.32       1.0  T
   4   -656.2935654 -0.578781E-01  0.294E-01    0.13       1.0  T
   5   -656.0989150  0.194650E+00  0.547E-01    0.18       1.0  T
   6   -656.1642725 -0.653576E-01  0.358E-01    0.03       1.0  T
   7   -655.8039175  0.360355E+00  0.581E-01    0.13       1.0  T
   8   -656.2985017 -0.494584E+00  0.243E-01    0.10       1.0  T
   9   -656.3225623 -0.240606E-01  0.144E-01    0.08       1.0  T
  10   -656.3306195 -0.805711E-02  0.113E-01    0.08       1.0  T
  11   -656.3408051 -0.101856E-01  0.671E-02    0.09       1.0  T
  12   -656.3440357 -0.323060E-02  0.359E-02    0.07       1.0  T
  13   -656.3458721 -0.183640E-02  0.197E-02    0.07       1.0  T
  14   -656.3461994 -0.327332E-03  0.885E-03    0.07       1.0  T
  15   -656.3462499 -0.504786E-04  0.604E-03    0.07       1.0  T
  16   -656.3461997  0.501690E-04  0.804E-03    0.07       1.0  T
  17   -656.3462781 -0.783420E-04  0.337E-03    0.07       1.6  T
  18   -656.3462792 -0.114994E-05  0.314E-03    0.07       1.7  T
  19   -656.3462838 -0.457258E-05  0.235E-03    0.07       2.2  T
  20   -656.3462867 -0.288341E-05  0.158E-03    0.07       3.3  T
  21   -656.3462887 -0.206185E-05  0.959E-04    0.07       5.5  T
  22   -656.3462890 -0.228500E-06  0.773E-04    0.07       6.8  T
  23   -656.3462896 -0.656501E-06  0.271E-04    0.07      19.3  T
     SCC iter.                  ...        0 min, 11.601 sec
     gradient                   ...        0 min,  0.729 sec
 * total energy  :  -643.5643452 Eh     change       -0.2929742E+00 Eh
   gradient norm :     0.3070959 Eh/α   predicted    -0.2816523E+00 (  -3.86%)
   displ. norm   :     0.7570327 α      lambda       -0.2017984E+00
   maximum displ.:     0.3435942 α      in ANC's #379, #417, #374, ...

........................................................................
.............................. CYCLE    5 ..............................
........................................................................
   1   -656.4691776 -0.656469E+03  0.254E-01    0.10       0.0  T
   2   -655.7326572  0.736520E+00  0.836E-01    0.14       1.0  T
   3   -656.2277894 -0.495132E+00  0.534E-01    0.25       1.0  T
   4   -656.3685911 -0.140802E+00  0.442E-01    0.14       1.0  T
   5   -656.4562547 -0.876636E-01  0.197E-01    0.09       1.0  T
   6   -655.9599686  0.496286E+00  0.596E-01    0.11       1.0  T
   7   -656.2090813 -0.249113E+00  0.389E-01    0.04       1.0  T
   8   -656.4571025 -0.248021E+00  0.142E-01    0.06       1.0  T
   9   -656.4710945 -0.139921E-01  0.869E-02    0.05       1.0  T
  10   -656.4816426 -0.105481E-01  0.493E-02    0.06       1.0  T
  11   -656.4837070 -0.206434E-02  0.221E-02    0.07       1.0  T
  12   -656.4827227  0.984270E-03  0.319E-02    0.06       1.0  T
  13   -656.4838270 -0.110429E-02  0.178E-02    0.06       1.0  T
  14   -656.4839507 -0.123725E-03  0.819E-03    0.07       1.0  T
  15   -656.4839681 -0.173665E-04  0.817E-03    0.06       1.0  T
  16   -656.4840337 -0.656839E-04  0.362E-03    0.07       1.4  T
  17   -656.4840505 -0.167210E-04  0.180E-03    0.07       2.9  T
  18   -656.4840512 -0.737282E-06  0.171E-03    0.07       3.1  T
  19   -656.4840534 -0.222153E-05  0.528E-04    0.07       9.9  T
  20   -656.4840536 -0.143869E-06  0.296E-04    0.07      17.7  T
  21   -656.4840536 -0.564389E-07  0.239E-04    0.07      21.9  T
     SCC iter.                  ...        0 min, 10.595 sec
     gradient                   ...        0 min,  0.730 sec
 * total energy  :  -643.7295757 Eh     change       -0.1652304E+00 Eh
   gradient norm :     0.1790468 Eh/α   predicted    -0.1587255E+00 (  -3.94%)
   displ. norm   :     0.8196865 α      lambda       -0.1381515E+00
   maximum displ.:     0.3808396 α      in ANC's #379, #210, #417, ...

........................................................................
.............................. CYCLE    6 ..............................
........................................................................
   1   -656.5798119 -0.656580E+03  0.257E-01    0.12       0.0  T
   2   -655.8162584  0.763554E+00  0.873E-01    0.15       1.0  T
   3   -656.2551364 -0.438878E+00  0.643E-01    0.24       1.0  T
   4   -656.5212283 -0.266092E+00  0.355E-01    0.14       1.0  T
   5   -656.5673242 -0.460959E-01  0.172E-01    0.11       1.0  T
   6   -655.9971754  0.570149E+00  0.634E-01    0.08       1.0  T
   7   -656.3200122 -0.322837E+00  0.434E-01    0.05       1.0  T
   8   -656.5896481 -0.269636E+00  0.864E-02    0.09       1.0  T
   9   -656.5959624 -0.631430E-02  0.210E-02    0.07       1.0  T
  10   -656.5950686  0.893769E-03  0.310E-02    0.07       1.0  T
  11   -656.5959257 -0.857115E-03  0.253E-02    0.07       1.0  T
  12   -656.5957931  0.132576E-03  0.276E-02    0.06       1.0  T
  13   -656.5960982 -0.305092E-03  0.141E-02    0.07       1.0  T
  14   -656.5962347 -0.136441E-03  0.814E-03    0.07       1.0  T
  15   -656.5963055 -0.708100E-04  0.352E-03    0.07       1.5  T
  16   -656.5963118 -0.631870E-05  0.228E-03    0.07       2.3  T
  17   -656.5963162 -0.439248E-05  0.126E-03    0.07       4.2  T
  18   -656.5963160  0.165231E-06  0.147E-03    0.07       3.6  T
  19   -656.5963174 -0.135617E-05  0.576E-04    0.07       9.1  T
  20   -656.5963175 -0.133899E-06  0.333E-04    0.07      15.7  T
  21   -656.5963176 -0.756280E-07  0.219E-04    0.07      23.9  T
     SCC iter.                  ...        0 min, 10.584 sec
     gradient                   ...        0 min,  0.738 sec
 * total energy  :  -643.8486477 Eh     change       -0.1190720E+00 Eh
   gradient norm :     0.1326092 Eh/α   predicted    -0.1154868E+00 (  -3.01%)
   displ. norm   :     0.8422441 α      lambda       -0.1045461E+00
   maximum displ.:     0.3696878 α      in ANC's #379, #210, #417, ...

........................................................................
.............................. CYCLE    7 ..............................
........................................................................
   1   -656.6646014 -0.656665E+03  0.245E-01    0.12       0.0  T
   2   -655.8788068  0.785795E+00  0.877E-01    0.15       1.0  T
   3   -656.4522687 -0.573462E+00  0.527E-01    0.22       1.0  T
   4   -656.6004509 -0.148182E+00  0.357E-01    0.16       1.0  T
   5   -656.6431194 -0.426685E-01  0.154E-01    0.07       1.0  T
   6   -656.0401369  0.602983E+00  0.609E-01    0.15       1.0  T
   7   -656.6573833 -0.617246E+00  0.160E-01    0.11       1.0  T
   8   -656.6643476 -0.696433E-02  0.125E-01    0.12       1.0  T
   9   -656.6762407 -0.118931E-01  0.396E-02    0.08       1.0  T
  10   -656.6765339 -0.293203E-03  0.350E-02    0.08       1.0  T
  11   -656.6769388 -0.404845E-03  0.334E-02    0.08       1.0  T
  12   -656.6768949  0.439166E-04  0.323E-02    0.08       1.0  T
  13   -656.6765786  0.316236E-03  0.286E-02    0.08       1.0  T
  14   -656.6777591 -0.118053E-02  0.720E-03    0.08       1.0  T
  15   -656.6777755 -0.163692E-04  0.621E-03    0.08       1.0  T
  16   -656.6777849 -0.939396E-05  0.526E-03    0.08       1.0  T
  17   -656.6778060 -0.210875E-04  0.331E-03    0.08       1.6  T
  18   -656.6778104 -0.440816E-05  0.172E-03    0.08       3.0  T
  19   -656.6778106 -0.235123E-06  0.155E-03    0.08       3.4  T
  20   -656.6778118 -0.113208E-05  0.108E-03    0.08       4.8  T
  21   -656.6778125 -0.719945E-06  0.589E-04    0.08       8.9  T
  22   -656.6778128 -0.266147E-06  0.267E-04    0.08      19.6  T
     SCC iter.                  ...        0 min, 11.214 sec
     gradient                   ...        0 min,  0.730 sec
 * total energy  :  -643.9398103 Eh     change       -0.9116266E-01 Eh
   gradient norm :     0.1032519 Eh/α   predicted    -0.8935427E-01 (  -1.98%)
   displ. norm   :     0.8490814 α      lambda       -0.7952648E-01
   maximum displ.:     0.3295945 α      in ANC's #379, #210, #194, ...

........................................................................
.............................. CYCLE    8 ..............................
........................................................................
   1   -656.7296213 -0.656730E+03  0.224E-01    0.12       0.0  T
   2   -655.9131676  0.816454E+00  0.864E-01    0.13       1.0  T
   3   -656.6668462 -0.753679E+00  0.284E-01    0.21       1.0  T
   4   -656.5988891  0.679571E-01  0.480E-01    0.20       1.0  T
   5   -656.7013203 -0.102431E+00  0.185E-01    0.11       1.0  T
   6   -656.6779834  0.233369E-01  0.259E-01    0.11       1.0  T
   7   -656.7177716 -0.397882E-01  0.141E-01    0.11       1.0  T
   8   -656.7229612 -0.518961E-02  0.116E-01    0.11       1.0  T
   9   -656.7334350 -0.104739E-01  0.625E-02    0.12       1.0  T
  10   -656.7348307 -0.139568E-02  0.509E-02    0.11       1.0  T
  11   -656.7348022  0.285524E-04  0.511E-02    0.11       1.0  T
  12   -656.7344679  0.334314E-03  0.513E-02    0.10       1.0  T
  13   -656.7370646 -0.259674E-02  0.232E-02    0.09       1.0  T
  14   -656.7374923 -0.427692E-03  0.127E-02    0.08       1.0  T
  15   -656.7376474 -0.155131E-03  0.621E-03    0.08       1.0  T
  16   -656.7375145  0.132905E-03  0.108E-02    0.09       1.0  T
  17   -656.7376450 -0.130463E-03  0.504E-03    0.09       1.0  T
  18   -656.7376719 -0.269059E-04  0.163E-03    0.09       3.2  T
  19   -656.7376721 -0.239470E-06  0.118E-03    0.09       4.4  T
  20   -656.7376733 -0.113082E-05  0.596E-04    0.09       8.8  T
  21   -656.7376735 -0.210737E-06  0.181E-04    0.09      28.9  T
  22   -656.7376735 -0.884177E-08  0.110E-04    0.09      47.7  T
     SCC iter.                  ...        0 min, 11.208 sec
     gradient                   ...        0 min,  0.732 sec
 * total energy  :  -644.0094166 Eh     change       -0.6960631E-01 Eh
   gradient norm :     0.0789245 Eh/α   predicted    -0.6843014E-01 (  -1.69%)
   displ. norm   :     0.8565644 α      lambda       -0.6075460E-01
   maximum displ.:     0.2900379 α      in ANC's #210, #379, #194, ...

........................................................................
.............................. CYCLE    9 ..............................
........................................................................
   1   -656.7723349 -0.656772E+03  0.210E-01    0.13       0.0  T
   2   -655.9346615  0.837673E+00  0.842E-01    0.11       1.0  T
   3   -656.7436197 -0.808958E+00  0.219E-01    0.22       1.0  T
   4   -656.3486908  0.394929E+00  0.772E-01    0.12       1.0  T
   5   -656.7482734 -0.399583E+00  0.209E-01    0.14       1.0  T
   6   -656.7510415 -0.276812E-02  0.170E-01    0.13       1.0  T
   7   -656.7559292 -0.488769E-02  0.153E-01    0.17       1.0  T
   8   -656.7622753 -0.634603E-02  0.123E-01    0.17       1.0  T
   9   -656.7663983 -0.412298E-02  0.994E-02    0.16       1.0  T
  10   -656.7674305 -0.103220E-02  0.935E-02    0.16       1.0  T
  11   -656.7671760  0.254494E-03  0.948E-02    0.16       1.0  T
  12   -656.7703399 -0.316390E-02  0.785E-02    0.14       1.0  T
  13   -656.7751295 -0.478966E-02  0.446E-02    0.12       1.0  T
  14   -656.7769602 -0.183063E-02  0.197E-02    0.11       1.0  T
  15   -656.7766910  0.269126E-03  0.247E-02    0.10       1.0  T
  16   -656.7763783  0.312740E-03  0.297E-02    0.11       1.0  T
  17   -656.7773471 -0.968853E-03  0.394E-03    0.10       1.3  T
  18   -656.7773558 -0.863221E-05  0.278E-03    0.10       1.9  T
  19   -656.7773439  0.119042E-04  0.404E-03    0.09       1.3  T
  20   -656.7773613 -0.174338E-04  0.123E-03    0.10       4.2  T
  21   -656.7773621 -0.802344E-06  0.502E-04    0.10      10.4  T
  22   -656.7773622 -0.104398E-06  0.442E-04    0.10      11.8  T
     SCC iter.                  ...        0 min, 11.065 sec
     gradient                   ...        0 min,  0.732 sec
 * total energy  :  -644.0630410 Eh     change       -0.5362439E-01 Eh
   gradient norm :     0.0609155 Eh/α   predicted    -0.5266521E-01 (  -1.79%)
   displ. norm   :     0.8683630 α      lambda       -0.4755475E-01
   maximum displ.:     0.2839190 α      in ANC's #210, #74, #194, ...

........................................................................
.............................. CYCLE   10 ..............................
........................................................................
   1   -656.7935068 -0.656794E+03  0.205E-01    0.14       0.0  T
   2   -655.9708908  0.822616E+00  0.806E-01    0.08       1.0  T
   3   -656.7371849 -0.766294E+00  0.323E-01    0.26       1.0  T
   4   -656.5631043  0.174081E+00  0.586E-01    0.24       1.0  T
   5   -656.7620815 -0.198977E+00  0.215E-01    0.13       1.0  T
   6   -656.7521127  0.996875E-02  0.261E-01    0.28       1.0  T
   7   -656.7666020 -0.144893E-01  0.205E-01    0.27       1.0  T
   8   -656.7752597 -0.865775E-02  0.171E-01    0.21       1.0  T
   9   -656.7859109 -0.106511E-01  0.114E-01    0.17       1.0  T
  10   -656.7871388 -0.122792E-02  0.106E-01    0.18       1.0  T
  11   -656.7876454 -0.506573E-03  0.102E-01    0.17       1.0  T
  12   -656.7915082 -0.386283E-02  0.826E-02    0.16       1.0  T
  13   -656.7947427 -0.323453E-02  0.608E-02    0.14       1.0  T
  14   -656.7973752 -0.263248E-02  0.338E-02    0.12       1.0  T
  15   -656.7974014 -0.261839E-04  0.337E-02    0.12       1.0  T
  16   -656.7972470  0.154363E-03  0.347E-02    0.12       1.0  T
  17   -656.7980338 -0.786725E-03  0.176E-02    0.11       1.0  T
  18   -656.7982653 -0.231546E-03  0.578E-03    0.11       1.0  T
  19   -656.7982330  0.323357E-04  0.749E-03    0.10       1.0  T
  20   -656.7982617 -0.286764E-04  0.593E-03    0.10       1.0  T
  21   -656.7982859 -0.242440E-04  0.372E-03    0.10       1.4  T
  22   -656.7983018 -0.158712E-04  0.674E-04    0.11       7.8  T
  23   -656.7983022 -0.436183E-06  0.258E-04    0.11      20.3  T
  24   -656.7983021  0.809518E-07  0.342E-04    0.11      15.3  T
     SCC iter.                  ...        0 min, 12.219 sec
     gradient                   ...        0 min,  0.731 sec
 * total energy  :  -644.1055608 Eh     change       -0.4251976E-01 Eh
   gradient norm :     0.0487522 Eh/α   predicted    -0.4170682E-01 (  -1.91%)
   displ. norm   :     0.8843367 α      lambda       -0.3860556E-01
   maximum displ.:     0.3003150 α      in ANC's #74, #210, #194, ...

........................................................................
.............................. CYCLE   11 ..............................
........................................................................
   1   -656.8016258 -0.656802E+03  0.203E-01    0.15       0.0  T
   2   -655.9270334  0.874592E+00  0.813E-01    0.07       1.0  T
   3   -656.7344317 -0.807398E+00  0.360E-01    0.28       1.0  T
   4   -656.6889283  0.455035E-01  0.421E-01    0.24       1.0  T
   5   -656.7586665 -0.697382E-01  0.265E-01    0.17       1.0  T
   6   -656.7813979 -0.227314E-01  0.203E-01    0.22       1.0  T
   7   -656.7860821 -0.468418E-02  0.168E-01    0.26       1.0  T
   8   -656.7941889 -0.810681E-02  0.129E-01    0.17       1.0  T
   9   -656.7980851 -0.389625E-02  0.102E-01    0.20       1.0  T
  10   -656.7992560 -0.117086E-02  0.917E-02    0.19       1.0  T
  11   -656.7999972 -0.741250E-03  0.873E-02    0.19       1.0  T
  12   -656.8033176 -0.332041E-02  0.643E-02    0.16       1.0  T
  13   -656.8064757 -0.315808E-02  0.334E-02    0.14       1.0  T
  14   -656.8059834  0.492339E-03  0.388E-02    0.14       1.0  T
  15   -656.8064977 -0.514373E-03  0.329E-02    0.14       1.0  T
  16   -656.8067819 -0.284152E-03  0.262E-02    0.13       1.0  T
  17   -656.8071962 -0.414308E-03  0.134E-02    0.12       1.0  T
  18   -656.8073394 -0.143197E-03  0.559E-03    0.12       1.0  T
  19   -656.8073726 -0.331488E-04  0.242E-03    0.12       2.2  T
  20   -656.8073671  0.548650E-05  0.265E-03    0.12       2.0  T
  21   -656.8073745 -0.747834E-05  0.777E-04    0.12       6.7  T
  22   -656.8073749 -0.362793E-06  0.564E-04    0.12       9.3  T
  23   -656.8073750 -0.769085E-07  0.497E-04    0.12      10.5  T
     SCC iter.                  ...        0 min, 11.689 sec
     gradient                   ...        0 min,  0.732 sec
 * total energy  :  -644.1406477 Eh     change       -0.3508693E-01 Eh
   gradient norm :     0.0405615 Eh/α   predicted    -0.3439856E-01 (  -1.96%)
   displ. norm   :     0.9061441 α      lambda       -0.3279871E-01
   maximum displ.:     0.3465289 α      in ANC's #74, #69, #43, ...

........................................................................
.............................. CYCLE   12 ..............................
........................................................................
   1   -656.8049451 -0.656805E+03  0.198E-01    0.18       0.0  T
   2   -655.8461653  0.958780E+00  0.835E-01    0.08       1.0  T
   3   -656.7473934 -0.901228E+00  0.342E-01    0.30       1.0  T
   4   -656.7393998  0.799360E-02  0.335E-01    0.26       1.0  T
   5   -656.7605816 -0.211818E-01  0.280E-01    0.21       1.0  T
   6   -656.7959406 -0.353590E-01  0.153E-01    0.24       1.0  T
   7   -656.7996133 -0.367271E-02  0.120E-01    0.26       1.0  T
   8   -656.8039006 -0.428734E-02  0.931E-02    0.20       1.0  T
   9   -656.8055777 -0.167709E-02  0.782E-02    0.21       1.0  T
  10   -656.8059596 -0.381910E-03  0.735E-02    0.21       1.0  T
  11   -656.8066086 -0.649036E-03  0.689E-02    0.20       1.0  T
  12   -656.8085118 -0.190315E-02  0.523E-02    0.18       1.0  T
  13   -656.8105702 -0.205838E-02  0.285E-02    0.15       1.0  T
  14   -656.8105178  0.524028E-04  0.286E-02    0.15       1.0  T
  15   -656.8108938 -0.375988E-03  0.224E-02    0.15       1.0  T
  16   -656.8108972 -0.345483E-05  0.210E-02    0.14       1.0  T
  17   -656.8112137 -0.316494E-03  0.110E-02    0.14       1.0  T
  18   -656.8112984 -0.846944E-04  0.439E-03    0.13       1.2  T
  19   -656.8113248 -0.264118E-04  0.159E-03    0.13       3.3  T
  20   -656.8113230  0.179746E-05  0.160E-03    0.13       3.3  T
  21   -656.8113261 -0.311182E-05  0.356E-04    0.13      14.7  T
  22   -656.8113261  0.420276E-07  0.373E-04    0.13      14.0  T
  23   -656.8113262 -0.586735E-07  0.299E-04    0.13      17.5  T
     SCC iter.                  ...        0 min, 11.697 sec
     gradient                   ...        0 min,  0.731 sec
 * total energy  :  -644.1711690 Eh     change       -0.3052129E-01 Eh
   gradient norm :     0.0356893 Eh/α   predicted    -0.2986483E-01 (  -2.15%)
   displ. norm   :     0.9361963 α      lambda       -0.2977644E-01
   maximum displ.:     0.3787895 α      in ANC's #74, #69, #43, ...

........................................................................
.............................. CYCLE   13 ..............................
........................................................................
   1   -656.8069032 -0.656807E+03  0.193E-01    0.23       0.0  T
   2   -656.0431791  0.763724E+00  0.730E-01    0.04       1.0  T
   3   -656.7701527 -0.726974E+00  0.283E-01    0.38       1.0  T
   4   -656.7616352  0.851755E-02  0.290E-01    0.33       1.0  T
   5   -656.7752883 -0.136532E-01  0.249E-01    0.30       1.0  T
   6   -656.8023969 -0.271086E-01  0.124E-01    0.34       1.0  T
   7   -656.8054487 -0.305180E-02  0.949E-02    0.35       1.0  T
   8   -656.8077252 -0.227644E-02  0.761E-02    0.29       1.0  T
   9   -656.8090846 -0.135947E-02  0.622E-02    0.28       1.0  T
  10   -656.8092367 -0.152016E-03  0.602E-02    0.27       1.0  T
  11   -656.8099474 -0.710745E-03  0.546E-02    0.25       1.0  T
  12   -656.8120144 -0.206701E-02  0.298E-02    0.19       1.0  T
  13   -656.8128190 -0.804563E-03  0.132E-02    0.17       1.0  T
  14   -656.8127029  0.116034E-03  0.164E-02    0.17       1.0  T
  15   -656.8128392 -0.136292E-03  0.113E-02    0.16       1.0  T
  16   -656.8128916 -0.523449E-04  0.741E-03    0.15       1.0  T
  17   -656.8129326 -0.409839E-04  0.521E-03    0.16       1.0  T
  18   -656.8129560 -0.234325E-04  0.161E-03    0.15       3.2  T
  19   -656.8129587 -0.270798E-05  0.520E-04    0.15      10.1  T
  20   -656.8129588 -0.106205E-06  0.300E-04    0.16      17.5  T
  21   -656.8129589 -0.411092E-07  0.228E-04    0.16      22.9  T
     SCC iter.                  ...        0 min, 10.553 sec
     gradient                   ...        0 min,  0.730 sec
 * total energy  :  -644.1999031 Eh     change       -0.2873408E-01 Eh
   gradient norm :     0.0345793 Eh/α   predicted    -0.2793720E-01 (  -2.77%)
   displ. norm   :     0.9721075 α      lambda       -0.2969961E-01
   maximum displ.:     0.3885883 α      in ANC's #74, #43, #69, ...

........................................................................
.............................. CYCLE   14 ..............................
........................................................................
   1   -656.8075053 -0.656808E+03  0.198E-01    0.29       0.0  T
   2   -656.5465901  0.260915E+00  0.446E-01    0.01       1.0  T
   3   -656.7864335 -0.239843E+00  0.206E-01    0.21       1.0  T
   4   -656.7795871  0.684643E-02  0.237E-01    0.34       1.0  T
   5   -656.7856700 -0.608292E-02  0.221E-01    0.41       1.0  T
   6   -656.8024370 -0.167670E-01  0.112E-01    0.24       1.0  T
   7   -656.8060623 -0.362528E-02  0.962E-02    0.22       1.0  T
   8   -656.8081810 -0.211877E-02  0.758E-02    0.28       1.0  T
   9   -656.8100138 -0.183274E-02  0.542E-02    0.26       1.0  T
  10   -656.8105400 -0.526208E-03  0.461E-02    0.27       1.0  T
  11   -656.8112805 -0.740476E-03  0.356E-02    0.27       1.0  T
  12   -656.8123323 -0.105179E-02  0.143E-02    0.23       1.0  T
  13   -656.8125338 -0.201576E-03  0.477E-03    0.19       1.1  T
  14   -656.8124519  0.819745E-04  0.948E-03    0.22       1.0  T
  15   -656.8122629  0.188979E-03  0.142E-02    0.17       1.0  T
  16   -656.8125498 -0.286901E-03  0.217E-03    0.20       2.4  T
  17   -656.8125526 -0.280560E-05  0.136E-03    0.19       3.8  T
  18   -656.8125544 -0.180918E-05  0.674E-04    0.19       7.8  T
  19   -656.8125545 -0.609348E-07  0.599E-04    0.19       8.7  T
  20   -656.8125549 -0.448792E-06  0.176E-04    0.19      29.7  T
     SCC iter.                  ...        0 min, 10.149 sec
     gradient                   ...        0 min,  0.729 sec
 * total energy  :  -644.2299315 Eh     change       -0.3002840E-01 Eh
   gradient norm :     0.0376811 Eh/α   predicted    -0.2888277E-01 (  -3.82%)
   displ. norm   :     0.9632346 α      lambda       -0.3091409E-01
   maximum displ.:     0.3670061 α      in ANC's #74, #43, #69, ...

........................................................................
.............................. CYCLE   15 ..............................
........................................................................
   1   -656.7936206 -0.656794E+03  0.197E-01    0.38       0.0  T
   2   -656.7733334  0.202872E-01  0.212E-01    0.17       1.0  T
   3   -656.7735681 -0.234702E-03  0.218E-01    0.42       1.0  T
   4   -656.7796901 -0.612203E-02  0.170E-01    0.48       1.0  T
   5   -656.7960393 -0.163491E-01  0.365E-02    0.35       1.0  T
   6   -656.7963047 -0.265398E-03  0.290E-02    0.29       1.0  T
   7   -656.7967301 -0.425436E-03  0.816E-03    0.30       1.0  T
   8   -656.7967418 -0.117009E-04  0.674E-03    0.28       1.0  T
   9   -656.7967530 -0.111965E-04  0.418E-03    0.28       1.3  T
  10   -656.7967536 -0.569446E-06  0.320E-03    0.28       1.6  T
  11   -656.7967562 -0.267250E-05  0.145E-03    0.28       3.6  T
  12   -656.7967572 -0.981858E-06  0.616E-04    0.28       8.5  T
  13   -656.7967573 -0.876348E-07  0.386E-04    0.28      13.5  T
     SCC iter.                  ...        0 min,  6.609 sec
     gradient                   ...        0 min,  0.730 sec
 * total energy  :  -644.2622365 Eh     change       -0.3230501E-01 Eh
   gradient norm :     0.0478793 Eh/α   predicted    -0.2979841E-01 (  -7.76%)
   displ. norm   :     0.9373155 α      lambda       -0.3439702E-01
   maximum displ.:     0.3749047 α      in ANC's #43, #74, #69, ...

........................................................................
.............................. CYCLE   16 ..............................
........................................................................
   1   -656.7791185 -0.656779E+03  0.196E-01    0.55       0.0  T
   2   -656.7712027  0.791578E-02  0.166E-01    0.44       1.0  T
   3   -656.7626661  0.853670E-02  0.203E-01    0.56       1.0  T
   4   -656.7752165 -0.125504E-01  0.106E-01    0.58       1.0  T
   5   -656.7810196 -0.580311E-02  0.279E-02    0.51       1.0  T
   6   -656.7812774 -0.257876E-03  0.954E-03    0.51       1.0  T
   7   -656.7813207 -0.432924E-04  0.439E-03    0.52       1.2  T
   8   -656.7813262 -0.545721E-05  0.218E-03    0.51       2.4  T
   9   -656.7813261  0.130742E-06  0.153E-03    0.52       3.4  T
  10   -656.7813273 -0.119140E-05  0.484E-04    0.51      10.8  T
  11   -656.7813273 -0.793162E-07  0.303E-04    0.51      17.3  T
  12   -656.7813274 -0.307139E-07  0.161E-04    0.51      32.5  T
     SCC iter.                  ...        0 min,  6.108 sec
     gradient                   ...        0 min,  0.729 sec
 * total energy  :  -644.2991396 Eh     change       -0.3690311E-01 Eh
   gradient norm :     0.0613644 Eh/α   predicted    -0.3230842E-01 ( -12.45%)
   displ. norm   :     0.9078788 α      lambda       -0.4025815E-01
   maximum displ.:     0.3775091 α      in ANC's #43, #74, #69, ...

........................................................................
.............................. CYCLE   17 ..............................
........................................................................
   1   -656.7666484 -0.656767E+03  0.188E-01    0.86       0.0  T
   2   -656.7631209  0.352755E-02  0.140E-01    0.80       1.0  T
   3   -656.7559732  0.714772E-02  0.171E-01    0.90       1.0  T
   4   -656.7666822 -0.107091E-01  0.569E-02    0.89       1.0  T
   5   -656.7679759 -0.129368E-02  0.275E-02    0.86       1.0  T
   6   -656.7683173 -0.341357E-03  0.466E-03    0.86       1.1  T
   7   -656.7683224 -0.509256E-05  0.296E-03    0.86       1.8  T
   8   -656.7683246 -0.228756E-05  0.180E-03    0.86       2.9  T
   9   -656.7683256 -0.929285E-06  0.910E-04    0.86       5.8  T
  10   -656.7683259 -0.304686E-06  0.346E-04    0.86      15.1  T
     SCC iter.                  ...        0 min,  5.030 sec
     gradient                   ...        0 min,  0.731 sec
 * total energy  :  -644.3421606 Eh     change       -0.4302100E-01 Eh
   gradient norm :     0.0734816 Eh/α   predicted    -0.3672034E-01 ( -14.65%)
   displ. norm   :     0.8878788 α      lambda       -0.4647591E-01
   maximum displ.:     0.3801576 α      in ANC's #43, #74, #32, ...

........................................................................
.............................. CYCLE   18 ..............................
........................................................................
   1   -656.7594318 -0.656759E+03  0.173E-01    0.95       0.0  T
   2   -656.7577115  0.172028E-02  0.125E-01    0.95       1.0  T
   3   -656.7531413  0.457020E-02  0.138E-01    0.96       1.0  T
   4   -656.7603731 -0.723182E-02  0.266E-02    0.96       1.0  T
   5   -656.7605230 -0.149914E-03  0.180E-02    0.96       1.0  T
   6   -656.7606631 -0.140140E-03  0.391E-03    0.96       1.3  T
   7   -656.7606657 -0.252116E-05  0.272E-03    0.96       1.9  T
   8   -656.7606681 -0.243515E-05  0.150E-03    0.96       3.5  T
   9   -656.7606689 -0.806803E-06  0.626E-04    0.96       8.4  T
  10   -656.7606690 -0.103294E-06  0.290E-04    0.96      18.1  T
     SCC iter.                  ...        0 min,  5.099 sec
     gradient                   ...        0 min,  0.729 sec
 * total energy  :  -644.3906960 Eh     change       -0.4853535E-01 Eh
   gradient norm :     0.0794247 Eh/α   predicted    -0.4155732E-01 ( -14.38%)
   displ. norm   :     0.8792268 α      lambda       -0.4960468E-01
   maximum displ.:     0.3920567 α      in ANC's #43, #32, #33, ...

........................................................................
.............................. CYCLE   19 ..............................
........................................................................
   1   -656.7587640 -0.656759E+03  0.157E-01    0.97       0.0  T
   2   -656.7574854  0.127854E-02  0.119E-01    0.97       1.0  T
   3   -656.7549623  0.252314E-02  0.110E-01    0.97       1.0  T
   4   -656.7596065 -0.464419E-02  0.196E-02    0.97       1.0  T
   5   -656.7597267 -0.120249E-03  0.978E-03    0.97       1.0  T
   6   -656.7597772 -0.504577E-04  0.377E-03    0.97       1.4  T
   7   -656.7597806 -0.342999E-05  0.220E-03    0.97       2.4  T
   8   -656.7597814 -0.780747E-06  0.117E-03    0.97       4.5  T
   9   -656.7597819 -0.521337E-06  0.546E-04    0.97       9.6  T
  10   -656.7597820 -0.116967E-06  0.239E-04    0.97      21.9  T
     SCC iter.                  ...        0 min,  5.023 sec
     gradient                   ...        0 min,  0.729 sec
 * total energy  :  -644.4377253 Eh     change       -0.4702932E-01 Eh
   gradient norm :     0.0750186 Eh/α   predicted    -0.4397563E-01 (  -6.49%)
   displ. norm   :     0.9343484 α      lambda       -0.5546119E-01
   maximum displ.:     0.4131539 α      in ANC's #43, #32, #33, ...

........................................................................
.............................. CYCLE   20 ..............................
........................................................................
   1   -656.8219281 -0.656822E+03  0.176E-01    0.95       0.0  T
   2   -656.8202586  0.166949E-02  0.138E-01    0.95       1.0  T
   3   -656.8180755  0.218307E-02  0.114E-01    0.95       1.0  T
   4   -656.8229532 -0.487768E-02  0.278E-02    0.95       1.0  T
   5   -656.8232645 -0.311372E-03  0.120E-02    0.95       1.0  T
   6   -656.8233542 -0.896616E-04  0.439E-03    0.95       1.2  T
   7   -656.8233579 -0.373132E-05  0.255E-03    0.95       2.1  T
   8   -656.8233592 -0.129608E-05  0.152E-03    0.95       3.4  T
   9   -656.8233601 -0.881567E-06  0.583E-04    0.95       9.0  T
  10   -656.8233602 -0.123922E-06  0.240E-04    0.95      21.8  T
     SCC iter.                  ...        0 min,  5.091 sec
     gradient                   ...        0 min,  0.729 sec
 * total energy  :  -644.4845766 Eh     change       -0.4685129E-01 Eh
   gradient norm :     0.0885669 Eh/α   predicted    -0.5193961E-01 (  10.86%)
   displ. norm   :     0.8288916 α      lambda       -0.4368742E-01
   maximum displ.:     0.3836785 α      in ANC's #43, #32, #74, ...
 * RMSD in coord.:     0.6881995 α      energy gain  -0.3000318E+01 Eh

generating ANC from model Hessian ...
Using Lindh-Hessian (1995)
 Shifting diagonal of input Hessian by    1.0033714499486141E-002
 Lowest  eigenvalues of input Hessian
    0.010000    0.010000    0.010000    0.010001    0.010012    0.010017
    0.010018    0.010022    0.010022    0.010023    0.010024    0.010025
    0.010026    0.010027    0.010029    0.010029    0.010030    0.010031
 Highest eigenvalues
    3.062063    3.065145    3.100296    3.100308    3.101793    3.101794


........................................................................
.............................. CYCLE   21 ..............................
........................................................................
   1   -656.8546824 -0.656855E+03  0.127E-01    0.95       0.0  T
   2   -656.8536224  0.105993E-02  0.105E-01    0.95       1.0  T
   3   -656.8532402  0.382241E-03  0.737E-02    0.95       1.0  T
   4   -656.8551493 -0.190914E-02  0.229E-02    0.95       1.0  T
   5   -656.8554169 -0.267607E-03  0.577E-03    0.95       1.0  T
   6   -656.8554292 -0.122732E-04  0.299E-03    0.95       1.8  T
   7   -656.8554315 -0.231725E-05  0.173E-03    0.95       3.0  T
   8   -656.8554320 -0.445310E-06  0.780E-04    0.95       6.7  T
   9   -656.8554322 -0.270883E-06  0.263E-04    0.95      19.9  T
     SCC iter.                  ...        0 min,  4.588 sec
     gradient                   ...        0 min,  0.729 sec
 * total energy  :  -644.5180327 Eh     change       -0.3345619E-01 Eh
   gradient norm :     0.0849914 Eh/α   predicted     0.0000000E+00 (-100.00%)
   displ. norm   :     0.7599872 α      lambda       -0.3398428E-01
   maximum displ.:     0.3284490 α      in ANC's #89, #76, #54, ...

........................................................................
.............................. CYCLE   22 ..............................
........................................................................
   1   -656.9253275 -0.656925E+03  0.935E-02    0.94       0.0  T
   2   -656.9252679  0.596145E-04  0.593E-02    0.94       1.0  T
   3   -656.9234125  0.185541E-02  0.564E-02    0.94       1.0  T
   4   -656.9253727 -0.196026E-02  0.110E-02    0.94       1.0  T
   5   -656.9254219 -0.491611E-04  0.325E-03    0.94       1.6  T
   6   -656.9254253 -0.339926E-05  0.142E-03    0.94       3.7  T
   7   -656.9254255 -0.180740E-06  0.915E-04    0.94       5.7  T
   8   -656.9254257 -0.236285E-06  0.359E-04    0.94      14.6  T
     SCC iter.                  ...        0 min,  4.025 sec
     gradient                   ...        0 min,  0.730 sec
 * total energy  :  -644.5491333 Eh     change       -0.3110052E-01 Eh
   gradient norm :     0.0522494 Eh/α   predicted    -0.2680837E-01 ( -13.80%)
   displ. norm   :     0.9016170 α      lambda       -0.3334771E-01
   maximum displ.:     0.3974834 α      in ANC's #89, #76, #54, ...

........................................................................
.............................. CYCLE   23 ..............................
........................................................................
   1   -656.9960474 -0.656996E+03  0.998E-02    0.93       0.0  T
   2   -656.9959764  0.710476E-04  0.632E-02    0.93       1.0  T
   3   -656.9939258  0.205052E-02  0.579E-02    0.93       1.0  T
   4   -656.9961012 -0.217534E-02  0.122E-02    0.93       1.0  T
   5   -656.9961653 -0.640752E-04  0.360E-03    0.93       1.5  T
   6   -656.9961697 -0.442908E-05  0.133E-03    0.93       3.9  T
   7   -656.9961698 -0.131946E-06  0.841E-04    0.93       6.2  T
   8   -656.9961700 -0.191550E-06  0.394E-04    0.93      13.3  T
     SCC iter.                  ...        0 min,  4.079 sec
     gradient                   ...        0 min,  0.729 sec
 * total energy  :  -644.5794495 Eh     change       -0.3031625E-01 Eh
   gradient norm :     0.0342648 Eh/α   predicted    -0.3022946E-01 (  -0.29%)
   displ. norm   :     0.9223589 α      lambda       -0.2817256E-01
   maximum displ.:     0.4153334 α      in ANC's #89, #76, #54, ...

........................................................................
.............................. CYCLE   24 ..............................
........................................................................
   1   -657.0539415 -0.657054E+03  0.884E-02    0.92       0.0  T
   2   -657.0538984  0.430236E-04  0.543E-02    0.92       1.0  T
   3   -657.0522571  0.164139E-02  0.463E-02    0.92       1.0  T
   4   -657.0539714 -0.171431E-02  0.806E-03    0.92       1.0  T
   5   -657.0540024 -0.310501E-04  0.241E-03    0.92       2.2  T
   6   -657.0540043 -0.188242E-05  0.947E-04    0.92       5.5  T
   7   -657.0540043 -0.162584E-08  0.600E-04    0.92       8.7  T
   8   -657.0540044 -0.125473E-06  0.300E-04    0.92      17.4  T
     SCC iter.                  ...        0 min,  4.115 sec
     gradient                   ...        0 min,  0.730 sec
 * total energy  :  -644.6059864 Eh     change       -0.2653694E-01 Eh
   gradient norm :     0.0379669 Eh/α   predicted    -0.2607014E-01 (  -1.76%)
   displ. norm   :     0.9453495 α      lambda       -0.2653857E-01
   maximum displ.:     0.4224627 α      in ANC's #89, #76, #54, ...

........................................................................
.............................. CYCLE   25 ..............................
........................................................................
   1   -657.1042511 -0.657104E+03  0.886E-02    0.91       0.0  T
   2   -657.1042090  0.420684E-04  0.540E-02    0.91       1.0  T
   3   -657.1025300  0.167901E-02  0.462E-02    0.91       1.0  T
   4   -657.1042829 -0.175284E-02  0.577E-03    0.91       1.0  T
   5   -657.1042985 -0.156322E-04  0.181E-03    0.91       2.9  T
   6   -657.1042994 -0.930656E-06  0.921E-04    0.91       5.7  T
   7   -657.1042995 -0.727605E-07  0.519E-04    0.91      10.1  T
     SCC iter.                  ...        0 min,  3.576 sec
     gradient                   ...        0 min,  0.729 sec
 * total energy  :  -644.6310197 Eh     change       -0.2503330E-01 Eh
   gradient norm :     0.0370815 Eh/α   predicted    -0.2512788E-01 (   0.38%)
   displ. norm   :     0.9676857 α      lambda       -0.2650968E-01
   maximum displ.:     0.4317229 α      in ANC's #89, #76, #54, ...

........................................................................
.............................. CYCLE   26 ..............................
........................................................................
   1   -657.1489575 -0.657149E+03  0.102E-01    0.91       0.0  T
   2   -657.1488956  0.619127E-04  0.629E-02    0.91       1.0  T
   3   -657.1467535  0.214210E-02  0.576E-02    0.91       1.0  T
   4   -657.1490035 -0.225000E-02  0.612E-03    0.91       1.0  T
   5   -657.1490223 -0.188065E-04  0.207E-03    0.91       2.5  T
   6   -657.1490233 -0.101328E-05  0.118E-03    0.91       4.5  T
   7   -657.1490235 -0.182523E-06  0.641E-04    0.91       8.2  T
   8   -657.1490237 -0.160940E-06  0.263E-04    0.91      19.9  T
     SCC iter.                  ...        0 min,  4.082 sec
     gradient                   ...        0 min,  0.730 sec
 * total energy  :  -644.6546567 Eh     change       -0.2363695E-01 Eh
   gradient norm :     0.0296145 Eh/α   predicted    -0.2566689E-01 (   8.59%)
   displ. norm   :     0.9415080 α      lambda       -0.2398740E-01
   maximum displ.:     0.4329928 α      in ANC's #76, #89, #54, ...

........................................................................
.............................. CYCLE   27 ..............................
........................................................................
   1   -657.1896870 -0.657190E+03  0.916E-02    0.90       0.0  T
   2   -657.1896505  0.364370E-04  0.558E-02    0.90       1.0  T
   3   -657.1881110  0.153954E-02  0.464E-02    0.90       1.0  T
   4   -657.1897180 -0.160700E-02  0.536E-03    0.90       1.0  T
   5   -657.1897323 -0.142790E-04  0.175E-03    0.90       3.0  T
   6   -657.1897329 -0.638958E-06  0.101E-03    0.90       5.2  T
   7   -657.1897330 -0.121969E-06  0.553E-04    0.90       9.5  T
   8   -657.1897332 -0.121579E-06  0.215E-04    0.90      24.3  T
     SCC iter.                  ...        0 min,  4.034 sec
     gradient                   ...        0 min,  0.730 sec
 * total energy  :  -644.6769445 Eh     change       -0.2228786E-01 Eh
   gradient norm :     0.0251728 Eh/α   predicted    -0.2262537E-01 (   1.51%)
   displ. norm   :     0.9625114 α      lambda       -0.2236991E-01
   maximum displ.:     0.4475450 α      in ANC's #76, #89, #54, ...

........................................................................
.............................. CYCLE   28 ..............................
........................................................................
   1   -657.2263326 -0.657226E+03  0.103E-01    0.90       0.0  T
   2   -657.2263098  0.228058E-04  0.618E-02    0.90       1.0  T
   3   -657.2250309  0.127890E-02  0.405E-02    0.90       1.0  T
   4   -657.2263575 -0.132657E-02  0.473E-03    0.90       1.1  T
   5   -657.2263679 -0.104644E-04  0.161E-03    0.90       3.2  T
   6   -657.2263684 -0.489271E-06  0.992E-04    0.90       5.3  T
   7   -657.2263686 -0.146261E-06  0.503E-04    0.90      10.4  T
     SCC iter.                  ...        0 min,  3.581 sec
     gradient                   ...        0 min,  0.755 sec
 * total energy  :  -644.6977652 Eh     change       -0.2082062E-01 Eh
   gradient norm :     0.0242863 Eh/α   predicted    -0.2154703E-01 (   3.49%)
   displ. norm   :     0.9606747 α      lambda       -0.2094023E-01
   maximum displ.:     0.4501676 α      in ANC's #76, #89, #54, ...

........................................................................
.............................. CYCLE   29 ..............................
........................................................................
   1   -657.2624974 -0.657262E+03  0.960E-02    0.90       0.0  T
   2   -657.2624836  0.138040E-04  0.572E-02    0.90       1.0  T
   3   -657.2615509  0.932749E-03  0.336E-02    0.90       1.0  T
   4   -657.2625155 -0.964658E-03  0.476E-03    0.90       1.1  T
   5   -657.2625268 -0.113228E-04  0.149E-03    0.90       3.5  T
   6   -657.2625272 -0.385694E-06  0.957E-04    0.90       5.5  T
   7   -657.2625274 -0.162416E-06  0.496E-04    0.90      10.6  T
     SCC iter.                  ...        0 min,  3.537 sec
     gradient                   ...        0 min,  0.732 sec
 * total energy  :  -644.7177685 Eh     change       -0.2000329E-01 Eh
   gradient norm :     0.0223670 Eh/α   predicted    -0.2013295E-01 (   0.65%)
   displ. norm   :     0.9652467 α      lambda       -0.1955725E-01
   maximum displ.:     0.4549343 α      in ANC's #76, #89, #54, ...

........................................................................
.............................. CYCLE   30 ..............................
........................................................................
   1   -657.2978795 -0.657298E+03  0.975E-02    0.90       0.0  T
   2   -657.2978673  0.122291E-04  0.579E-02    0.90       1.0  T
   3   -657.2970224  0.844824E-03  0.332E-02    0.90       1.0  T
   4   -657.2978977 -0.875288E-03  0.432E-03    0.90       1.2  T
   5   -657.2979066 -0.891576E-05  0.147E-03    0.90       3.6  T
   6   -657.2979069 -0.245124E-06  0.103E-03    0.90       5.1  T
   7   -657.2979071 -0.250396E-06  0.492E-04    0.90      10.6  T
   8   -657.2979072 -0.971239E-07  0.162E-04    0.90      32.2  T
     SCC iter.                  ...        0 min,  4.085 sec
     gradient                   ...        0 min,  0.730 sec
 * total energy  :  -644.7364515 Eh     change       -0.1868309E-01 Eh
   gradient norm :     0.0206158 Eh/α   predicted    -0.1888939E-01 (   1.10%)
   displ. norm   :     0.9772910 α      lambda       -0.1898477E-01
   maximum displ.:     0.4589925 α      in ANC's #76, #89, #81, ...

........................................................................
.............................. CYCLE   31 ..............................
........................................................................
   1   -657.3314202 -0.657331E+03  0.110E-01    0.90       0.0  T
   2   -657.3314104  0.981846E-05  0.654E-02    0.90       1.0  T
   3   -657.3306131  0.797349E-03  0.337E-02    0.90       1.0  T
   4   -657.3314391 -0.826007E-03  0.424E-03    0.90       1.2  T
   5   -657.3314471 -0.806692E-05  0.168E-03    0.90       3.1  T
   6   -657.3314473 -0.174095E-06  0.123E-03    0.90       4.2  T
   7   -657.3314477 -0.394019E-06  0.558E-04    0.90       9.4  T
   8   -657.3314478 -0.130987E-06  0.173E-04    0.90      30.2  T
     SCC iter.                  ...        0 min,  4.083 sec
     gradient                   ...        0 min,  0.730 sec
 * total energy  :  -644.7538082 Eh     change       -0.1735665E-01 Eh
   gradient norm :     0.0205028 Eh/α   predicted    -0.1855855E-01 (   6.92%)
   displ. norm   :     0.9544160 α      lambda       -0.1773947E-01
   maximum displ.:     0.4495699 α      in ANC's #76, #81, #54, ...

........................................................................
.............................. CYCLE   32 ..............................
........................................................................
   1   -657.3627957 -0.657363E+03  0.105E-01    0.90       0.0  T
   2   -657.3627913  0.434030E-05  0.620E-02    0.90       1.0  T
   3   -657.3622395  0.551880E-03  0.267E-02    0.90       1.0  T
   4   -657.3628090 -0.569579E-03  0.403E-03    0.90       1.3  T
   5   -657.3628169 -0.789338E-05  0.162E-03    0.90       3.2  T
   6   -657.3628173 -0.312077E-06  0.111E-03    0.90       4.7  T
   7   -657.3628175 -0.290061E-06  0.499E-04    0.90      10.5  T
   8   -657.3628177 -0.109074E-06  0.175E-04    0.90      30.0  T
     SCC iter.                  ...        0 min,  4.033 sec
     gradient                   ...        0 min,  0.730 sec
 * total energy  :  -644.7702731 Eh     change       -0.1646490E-01 Eh
   gradient norm :     0.0186105 Eh/α   predicted    -0.1694929E-01 (   2.94%)
   displ. norm   :     0.9614173 α      lambda       -0.1638569E-01
   maximum displ.:     0.4508640 α      in ANC's #76, #81, #54, ...

........................................................................
.............................. CYCLE   33 ..............................
........................................................................
   1   -657.3909077 -0.657391E+03  0.103E-01    0.90       0.0  T
   2   -657.3909010  0.677549E-05  0.612E-02    0.90       1.0  T
   3   -657.3902605  0.640498E-03  0.302E-02    0.90       1.0  T
   4   -657.3909246 -0.664155E-03  0.374E-03    0.90       1.4  T
   5   -657.3909312 -0.659993E-05  0.149E-03    0.90       3.5  T
   6   -657.3909315 -0.256851E-06  0.102E-03    0.90       5.1  T
   7   -657.3909317 -0.223858E-06  0.439E-04    0.90      11.9  T
   8   -657.3909318 -0.836402E-07  0.153E-04    0.90      34.2  T
     SCC iter.                  ...        0 min,  4.078 sec
     gradient                   ...        0 min,  0.731 sec
 * total energy  :  -644.7855520 Eh     change       -0.1527894E-01 Eh
   gradient norm :     0.0175109 Eh/α   predicted    -0.1576569E-01 (   3.19%)
   displ. norm   :     0.9636712 α      lambda       -0.1532276E-01
   maximum displ.:     0.4523884 α      in ANC's #76, #81, #54, ...

........................................................................
.............................. CYCLE   34 ..............................
........................................................................
   1   -657.4208943 -0.657421E+03  0.102E-01    0.89       0.0  T
   2   -657.4208887  0.555374E-05  0.602E-02    0.89       1.0  T
   3   -657.4202973  0.591441E-03  0.293E-02    0.89       1.0  T
   4   -657.4209108 -0.613475E-03  0.370E-03    0.89       1.4  T
   5   -657.4209174 -0.657917E-05  0.144E-03    0.89       3.6  T
   6   -657.4209176 -0.223711E-06  0.999E-04    0.89       5.2  T
   7   -657.4209178 -0.228057E-06  0.414E-04    0.89      12.6  T
     SCC iter.                  ...        0 min,  3.577 sec
     gradient                   ...        0 min,  0.730 sec
 * total energy  :  -644.7999216 Eh     change       -0.1436958E-01 Eh
   gradient norm :     0.0163112 Eh/α   predicted    -0.1477621E-01 (   2.83%)
   displ. norm   :     0.9618685 α      lambda       -0.1428922E-01
   maximum displ.:     0.4513178 α      in ANC's #76, #81, #54, ...

........................................................................
.............................. CYCLE   35 ..............................
........................................................................
   1   -657.4526323 -0.657453E+03  0.974E-02    0.89       0.0  T
   2   -657.4526301  0.221315E-05  0.576E-02    0.89       1.0  T
   3   -657.4521564  0.473726E-03  0.264E-02    0.89       1.0  T
   4   -657.4526464 -0.490027E-03  0.386E-03    0.89       1.4  T
   5   -657.4526543 -0.786696E-05  0.127E-03    0.89       4.1  T
   6   -657.4526545 -0.149704E-06  0.904E-04    0.89       5.8  T
   7   -657.4526546 -0.188081E-06  0.383E-04    0.89      13.7  T
     SCC iter.                  ...        0 min,  3.537 sec
     gradient                   ...        0 min,  0.731 sec
 * total energy  :  -644.8133244 Eh     change       -0.1340281E-01 Eh
   gradient norm :     0.0149555 Eh/α   predicted    -0.1375473E-01 (   2.63%)
   displ. norm   :     0.9591192 α      lambda       -0.1315962E-01
   maximum displ.:     0.4423877 α      in ANC's #76, #81, #54, ...

........................................................................
.............................. CYCLE   36 ..............................
........................................................................
   1   -657.4818762 -0.657482E+03  0.902E-02    0.89       0.0  T
   2   -657.4818751  0.118967E-05  0.532E-02    0.89       1.0  T
   3   -657.4814780  0.397092E-03  0.244E-02    0.89       1.0  T
   4   -657.4818890 -0.411076E-03  0.360E-03    0.89       1.5  T
   5   -657.4818960 -0.694566E-05  0.114E-03    0.89       4.6  T
   6   -657.4818961 -0.137730E-06  0.806E-04    0.89       6.5  T
   7   -657.4818963 -0.160053E-06  0.323E-04    0.89      16.2  T
     SCC iter.                  ...        0 min,  3.578 sec
     gradient                   ...        0 min,  0.730 sec
 * total energy  :  -644.8258727 Eh     change       -0.1254825E-01 Eh
   gradient norm :     0.0132018 Eh/α   predicted    -0.1263265E-01 (   0.67%)
   displ. norm   :     0.9608817 α      lambda       -0.1213181E-01
   maximum displ.:     0.4384532 α      in ANC's #76, #81, #54, ...

........................................................................
.............................. CYCLE   37 ..............................
........................................................................
   1   -657.5093505 -0.657509E+03  0.877E-02    0.89       0.0  T
   2   -657.5093492  0.131583E-05  0.517E-02    0.89       1.0  T
   3   -657.5089793  0.369906E-03  0.243E-02    0.89       1.0  T
   4   -657.5093634 -0.384160E-03  0.332E-03    0.89       1.6  T
   5   -657.5093691 -0.567268E-05  0.106E-03    0.89       4.9  T
   6   -657.5093692 -0.803599E-07  0.790E-04    0.89       6.6  T
   7   -657.5093694 -0.174402E-06  0.288E-04    0.89      18.2  T
     SCC iter.                  ...        0 min,  3.542 sec
     gradient                   ...        0 min,  0.750 sec
 * total energy  :  -644.8375213 Eh     change       -0.1164860E-01 Eh
   gradient norm :     0.0122409 Eh/α   predicted    -0.1166652E-01 (   0.15%)
   displ. norm   :     0.9612781 α      lambda       -0.1130311E-01
   maximum displ.:     0.4416414 α      in ANC's #81, #76, #54, ...

........................................................................
.............................. CYCLE   38 ..............................
........................................................................
   1   -657.5362434 -0.657536E+03  0.866E-02    0.88       0.0  T
   2   -657.5362443 -0.909736E-06  0.509E-02    0.88       1.0  T
   3   -657.5359661  0.278261E-03  0.212E-02    0.88       1.0  T
   4   -657.5362544 -0.288334E-03  0.328E-03    0.88       1.6  T
   5   -657.5362601 -0.567416E-05  0.998E-04    0.88       5.2  T
   6   -657.5362601 -0.237369E-07  0.784E-04    0.88       6.7  T
   7   -657.5362603 -0.185771E-06  0.270E-04    0.88      19.4  T
     SCC iter.                  ...        0 min,  3.535 sec
     gradient                   ...        0 min,  0.731 sec
 * total energy  :  -644.8483501 Eh     change       -0.1082879E-01 Eh
   gradient norm :     0.0114635 Eh/α   predicted    -0.1087391E-01 (   0.42%)
   displ. norm   :     0.9619008 α      lambda       -0.1053417E-01
   maximum displ.:     0.4535774 α      in ANC's #81, #76, #54, ...

........................................................................
.............................. CYCLE   39 ..............................
........................................................................
   1   -657.5609226 -0.657561E+03  0.870E-02    0.88       0.0  T
   2   -657.5609239 -0.135658E-05  0.511E-02    0.88       1.0  T
   3   -657.5606714  0.252494E-03  0.206E-02    0.88       1.0  T
   4   -657.5609334 -0.261951E-03  0.314E-03    0.88       1.7  T
   5   -657.5609384 -0.506160E-05  0.985E-04    0.88       5.3  T
   6   -657.5609384  0.833302E-08  0.801E-04    0.88       6.5  T
   7   -657.5609386 -0.200045E-06  0.263E-04    0.88      19.9  T
     SCC iter.                  ...        0 min,  3.533 sec
     gradient                   ...        0 min,  0.730 sec
 * total energy  :  -644.8583747 Eh     change       -0.1002469E-01 Eh
   gradient norm :     0.0109185 Eh/α   predicted    -0.1014048E-01 (   1.16%)
   displ. norm   :     0.9662733 α      lambda       -0.9961234E-02
   maximum displ.:     0.4627754 α      in ANC's #81, #76, #54, ...

........................................................................
.............................. CYCLE   40 ..............................
........................................................................
   1   -657.5830406 -0.657583E+03  0.937E-02    0.88       0.0  T
   2   -657.5830420 -0.140730E-05  0.551E-02    0.88       1.0  T
   3   -657.5827935  0.248533E-03  0.207E-02    0.88       1.0  T
   4   -657.5830519 -0.258398E-03  0.300E-03    0.88       1.7  T
   5   -657.5830562 -0.428802E-05  0.108E-03    0.88       4.8  T
   6   -657.5830560  0.136744E-06  0.960E-04    0.88       5.5  T
   7   -657.5830564 -0.336861E-06  0.253E-04    0.88      20.7  T
     SCC iter.                  ...        0 min,  3.534 sec
     gradient                   ...        0 min,  0.747 sec
 * total energy  :  -644.8675366 Eh     change       -0.9161846E-02 Eh
   gradient norm :     0.0111544 Eh/α   predicted    -0.9630950E-02 (   5.12%)
   displ. norm   :     0.9497897 α      lambda       -0.9378960E-02
   maximum displ.:     0.4644434 α      in ANC's #81, #76, #54, ...

........................................................................
.............................. CYCLE   41 ..............................
........................................................................
   1   -657.6046979 -0.657605E+03  0.904E-02    0.87       0.0  T
   2   -657.6047011 -0.318409E-05  0.532E-02    0.87       1.0  T
   3   -657.6045161  0.185067E-03  0.179E-02    0.87       1.0  T
   4   -657.6047071 -0.191082E-03  0.323E-03    0.87       1.6  T
   5   -657.6047125 -0.532177E-05  0.105E-03    0.87       5.0  T
   6   -657.6047124  0.677823E-07  0.881E-04    0.87       5.9  T
   7   -657.6047126 -0.251073E-06  0.294E-04    0.87      17.8  T
     SCC iter.                  ...        0 min,  3.577 sec
     gradient                   ...        0 min,  0.729 sec
 * total energy  :  -644.8761516 Eh     change       -0.8615014E-02 Eh
   gradient norm :     0.0111621 Eh/α   predicted    -0.8919868E-02 (   3.54%)
   displ. norm   :     0.9492260 α      lambda       -0.8419637E-02
   maximum displ.:     0.4757318 α      in ANC's #81, #76, #54, ...

........................................................................
.............................. CYCLE   42 ..............................
........................................................................
   1   -657.6242164 -0.657624E+03  0.840E-02    0.87       0.0  T
   2   -657.6242198 -0.333767E-05  0.492E-02    0.87       1.0  T
   3   -657.6240613  0.158471E-03  0.167E-02    0.87       1.0  T
   4   -657.6242254 -0.164109E-03  0.298E-03    0.87       1.8  T
   5   -657.6242299 -0.452248E-05  0.913E-04    0.87       5.7  T
   6   -657.6242299  0.541464E-07  0.782E-04    0.87       6.7  T
   7   -657.6242301 -0.204380E-06  0.252E-04    0.87      20.8  T
     SCC iter.                  ...        0 min,  3.574 sec
     gradient                   ...        0 min,  0.748 sec
 * total energy  :  -644.8840567 Eh     change       -0.7905097E-02 Eh
   gradient norm :     0.0096401 Eh/α   predicted    -0.8002994E-02 (   1.24%)
   displ. norm   :     0.9568400 α      lambda       -0.7864201E-02
   maximum displ.:     0.4844653 α      in ANC's #81, #76, #73, ...
 * RMSD in coord.:     1.0386668 α      energy gain  -0.3994801E+00 Eh

generating ANC from model Hessian ...
Using Lindh-Hessian (1995)
 Shifting diagonal of input Hessian by    1.0041704462567858E-002
 Lowest  eigenvalues of input Hessian
    0.010000    0.010000    0.010000    0.010000    0.010001    0.010001
    0.010010    0.010012    0.010019    0.010020    0.010023    0.010024
    0.010025    0.010028    0.010029    0.010032    0.010033    0.010035
[...]
 inverting freq            3   2.3692146288333098     
 inverting freq            4   2.0555196198793713     
 inverting freq            5   1.3928680869272558     

          ...................................................
          :                      SETUP                      :
          :.................................................:
          :  # frequencies                        1087      :
          :  # imaginary freq.                       0      :
          :  linear?                             false      :
          :  only rotor calc.                    false      :
          :  symmetry                               C1      :
          :  rotational number                       1      :
          :  scaling factor                  1.0000000      :
          :  rotor cutoff                   50.0000000 cm⁻¹ :
          :  imag. cutoff                  -20.0000000 cm⁻¹ :
          :.................................................:

    mode    ω/cm⁻¹     T·S(HO)/kcal·mol⁻¹    T·S(FR)/kcal·mol⁻¹   T·S(vib)
   ------------------------------------------------------------------------
       1      3.36    -3.03549 (  0.00%)    -1.85686 (100.00%)    -1.85688
       2      2.53    -3.20204 (  0.00%)    -1.94013 (100.00%)    -1.94014
       3      2.37    -3.24163 (  0.00%)    -1.95993 (100.00%)    -1.95994
       4      2.06    -3.32578 (  0.00%)    -2.00201 (100.00%)    -2.00201
       5      1.39    -3.55635 (  0.00%)    -2.11729 (100.00%)    -2.11729
       6      1.28    -3.60785 (  0.00%)    -2.14304 (100.00%)    -2.14304
       7      2.04    -3.33117 (  0.00%)    -2.00470 (100.00%)    -2.00470
       8      2.63    -3.17886 (  0.00%)    -1.92855 (100.00%)    -1.92855
       9      3.41    -3.02586 (  0.00%)    -1.85204 (100.00%)    -1.85207
      10      3.69    -2.97972 (  0.00%)    -1.82897 (100.00%)    -1.82901
      11      4.18    -2.90506 (  0.00%)    -1.79164 (100.00%)    -1.79170
      12      4.76    -2.82884 (  0.01%)    -1.75353 ( 99.99%)    -1.75362
      13      5.67    -2.72474 (  0.02%)    -1.70148 ( 99.98%)    -1.70164
      14      6.17    -2.67473 (  0.02%)    -1.67647 ( 99.98%)    -1.67670
      15      6.37    -2.65570 (  0.03%)    -1.66695 ( 99.97%)    -1.66722
      16      6.66    -2.62919 (  0.03%)    -1.65370 ( 99.97%)    -1.65401
      17      6.96    -2.60335 (  0.04%)    -1.64078 ( 99.96%)    -1.64114
      18      7.05    -2.59595 (  0.04%)    -1.63708 ( 99.96%)    -1.63745
      19      7.27    -2.57729 (  0.04%)    -1.62775 ( 99.96%)    -1.62817
      20      7.47    -2.56101 (  0.05%)    -1.61961 ( 99.95%)    -1.62008
      21      7.64    -2.54763 (  0.05%)    -1.61291 ( 99.95%)    -1.61342
      22      8.56    -2.48079 (  0.09%)    -1.57949 ( 99.91%)    -1.58026
      23      8.76    -2.46723 (  0.09%)    -1.57271 ( 99.91%)    -1.57355
      24      9.15    -2.44103 (  0.11%)    -1.55961 ( 99.89%)    -1.56060
      25     11.22    -2.32045 (  0.25%)    -1.49931 ( 99.75%)    -1.50138
      26     13.31    -2.21912 (  0.50%)    -1.44863 ( 99.50%)    -1.45248
      27     13.55    -2.20836 (  0.54%)    -1.44325 ( 99.46%)    -1.44736
      28     15.50    -2.12907 (  0.91%)    -1.40358 ( 99.09%)    -1.41022
      29     15.90    -2.11393 (  1.01%)    -1.39601 ( 98.99%)    -1.40327
      30     17.97    -2.04144 (  1.64%)    -1.35975 ( 98.36%)    -1.37093
      31     18.65    -2.01927 (  1.90%)    -1.34865 ( 98.10%)    -1.36139
      32     20.44    -1.96498 (  2.72%)    -1.32149 ( 97.28%)    -1.33898
      33     21.50    -1.93526 (  3.30%)    -1.30661 ( 96.70%)    -1.32738
      34     23.08    -1.89307 (  4.35%)    -1.28550 ( 95.65%)    -1.31191
      35     24.25    -1.86384 (  5.25%)    -1.27087 ( 94.75%)    -1.30197
      36     25.54    -1.83323 (  6.38%)    -1.25554 ( 93.62%)    -1.29237
      37     26.61    -1.80905 (  7.42%)    -1.24344 ( 92.58%)    -1.28542
      38     28.42    -1.76996 (  9.46%)    -1.22386 ( 90.54%)    -1.27550
      39     29.20    -1.75408 ( 10.42%)    -1.21591 ( 89.58%)    -1.27197
      40     29.70    -1.74389 ( 11.08%)    -1.21081 ( 88.92%)    -1.26986
      41     32.27    -1.69497 ( 14.78%)    -1.18630 ( 85.22%)    -1.26148
      42     34.69    -1.65214 ( 18.81%)    -1.16484 ( 81.19%)    -1.25652
      43     37.86    -1.60046 ( 24.74%)    -1.13894 ( 75.26%)    -1.25313
      44     39.49    -1.57551 ( 28.02%)    -1.12642 ( 71.98%)    -1.25226
      45     39.54    -1.57486 ( 28.11%)    -1.12610 ( 71.89%)    -1.25224
      46     39.65    -1.57324 ( 28.33%)    -1.12529 ( 71.67%)    -1.25220
      47     39.77    -1.57147 ( 28.57%)    -1.12440 ( 71.43%)    -1.25215
      48     39.90    -1.56947 ( 28.85%)    -1.12340 ( 71.15%)    -1.25210
      49     40.00    -1.56797 ( 29.06%)    -1.12264 ( 70.94%)    -1.25206
      50     40.10    -1.56648 ( 29.27%)    -1.12190 ( 70.73%)    -1.25202
      51     41.04    -1.55277 ( 31.23%)    -1.11502 ( 68.77%)    -1.25172
      52     41.24    -1.55003 ( 31.63%)    -1.11365 ( 68.37%)    -1.25167
      53     41.33    -1.54864 ( 31.83%)    -1.11295 ( 68.17%)    -1.25164
      54     44.96    -1.49896 ( 39.54%)    -1.08802 ( 60.46%)    -1.25048
      55     46.01    -1.48539 ( 41.75%)    -1.08121 ( 58.25%)    -1.24997
      56     48.76    -1.45111 ( 47.49%)    -1.06399 ( 52.51%)    -1.24784
      57     52.68    -1.40551 ( 55.20%)    -1.04108 ( 44.80%)    -1.24226
      58     56.65    -1.36270 ( 62.24%)    -1.01955 ( 37.76%)    -1.23312
      59     61.98    -1.30985 ( 70.24%)    -0.99294 ( 29.76%)    -1.21555
      60     62.26    -1.30720 ( 70.62%)    -0.99161 ( 29.38%)    -1.21447
      61     64.71    -1.28451 ( 73.72%)    -0.98017 ( 26.28%)    -1.20452
      62     67.85    -1.25666 ( 77.22%)    -0.96613 ( 22.78%)    -1.19049
      63     69.88    -1.23933 ( 79.23%)    -0.95738 ( 20.77%)    -1.18078
      64     70.88    -1.23100 ( 80.15%)    -0.95318 ( 19.85%)    -1.17586
      65     71.34    -1.22717 ( 80.56%)    -0.95124 ( 19.44%)    -1.17354
      66     71.59    -1.22514 ( 80.78%)    -0.95022 ( 19.22%)    -1.17230
      67     71.68    -1.22444 ( 80.85%)    -0.94986 ( 19.15%)    -1.17187
      68     71.71    -1.22412 ( 80.89%)    -0.94970 ( 19.11%)    -1.17167
      69     75.10    -1.19705 ( 83.58%)    -0.93603 ( 16.42%)    -1.15420
      70     75.29    -1.19558 ( 83.72%)    -0.93528 ( 16.28%)    -1.15320
      71     77.05    -1.18203 ( 84.94%)    -0.92843 ( 15.06%)    -1.14384
      72     77.79    -1.17646 ( 85.42%)    -0.92562 ( 14.58%)    -1.13989
      73     79.66    -1.16257 ( 86.56%)    -0.91859 ( 13.44%)    -1.12979
      74     83.41    -1.13565 ( 88.56%)    -0.90495 ( 11.44%)    -1.10926
      75     85.57    -1.12073 ( 89.56%)    -0.89739 ( 10.44%)    -1.09741
      76     86.49    -1.11443 ( 89.95%)    -0.89419 ( 10.05%)    -1.09231
      77     87.82    -1.10556 ( 90.49%)    -0.88969 (  9.51%)    -1.08503
      78     88.15    -1.10335 ( 90.62%)    -0.88857 (  9.38%)    -1.08320
      79     90.00    -1.09123 ( 91.30%)    -0.88241 (  8.70%)    -1.07307
      80     91.76    -1.07994 ( 91.90%)    -0.87668 (  8.10%)    -1.06347
      81     92.62    -1.07452 ( 92.17%)    -0.87392 (  7.83%)    -1.05881
      82     92.80    -1.07340 ( 92.23%)    -0.87336 (  7.77%)    -1.05785
      83     93.73    -1.06755 ( 92.51%)    -0.87038 (  7.49%)    -1.05278
      84     95.11    -1.05904 ( 92.91%)    -0.86605 (  7.09%)    -1.04535
      85     96.18    -1.05254 ( 93.19%)    -0.86274 (  6.81%)    -1.03963
      86     97.38    -1.04536 ( 93.50%)    -0.85909 (  6.50%)    -1.03326
      87    101.72    -1.01997 ( 94.49%)    -0.84615 (  5.51%)    -1.01039
      88    106.57    -0.99296 ( 95.38%)    -0.83235 (  4.62%)    -0.98554
      89    109.98    -0.97475 ( 95.90%)    -0.82304 (  4.10%)    -0.96854
      90    113.90    -0.95445 ( 96.42%)    -0.81264 (  3.58%)    -0.94938
      91    117.64    -0.93583 ( 96.84%)    -0.80309 (  3.16%)    -0.93164
      92    118.51    -0.93156 ( 96.93%)    -0.80089 (  3.07%)    -0.92755
      93    123.04    -0.90995 ( 97.35%)    -0.78978 (  2.65%)    -0.90676
      94    124.64    -0.90255 ( 97.48%)    -0.78597 (  2.52%)    -0.89960
      95    124.65    -0.90248 ( 97.48%)    -0.78593 (  2.52%)    -0.89954
      96    124.70    -0.90228 ( 97.48%)    -0.78583 (  2.52%)    -0.89935
      97    124.70    -0.90224 ( 97.48%)    -0.78581 (  2.52%)    -0.89931
      98    124.71    -0.90221 ( 97.48%)    -0.78579 (  2.52%)    -0.89928
      99    124.74    -0.90208 ( 97.48%)    -0.78572 (  2.52%)    -0.89915
     100    124.81    -0.90174 ( 97.49%)    -0.78555 (  2.51%)    -0.89882
     101    127.33    -0.89025 ( 97.68%)    -0.77963 (  2.32%)    -0.88768
     102    127.45    -0.88973 ( 97.69%)    -0.77935 (  2.31%)    -0.88717
     103    127.85    -0.88791 ( 97.71%)    -0.77842 (  2.29%)    -0.88541
     104    131.20    -0.87312 ( 97.93%)    -0.77078 (  2.07%)    -0.87100
     105    134.43    -0.85918 ( 98.12%)    -0.76357 (  1.88%)    -0.85739
     106    136.71    -0.84957 ( 98.24%)    -0.75859 (  1.76%)    -0.84797
     107    137.87    -0.84471 ( 98.30%)    -0.75607 (  1.70%)    -0.84320
     108    158.03    -0.76721 ( 99.01%)    -0.71565 (  0.99%)    -0.76670
     109    159.01    -0.76372 ( 99.03%)    -0.71381 (  0.97%)    -0.76323
     110    159.77    -0.76104 ( 99.05%)    -0.71241 (  0.95%)    -0.76058
     111    160.32    -0.75909 ( 99.06%)    -0.71138 (  0.94%)    -0.75864
     112    161.75    -0.75407 ( 99.10%)    -0.70875 (  0.90%)    -0.75366
     113    163.09    -0.74943 ( 99.12%)    -0.70630 (  0.88%)    -0.74905
     114    164.31    -0.74524 ( 99.15%)    -0.70410 (  0.85%)    -0.74489
     115    165.44    -0.74141 ( 99.17%)    -0.70208 (  0.83%)    -0.74108
     116    166.19    -0.73884 ( 99.19%)    -0.70072 (  0.81%)    -0.73853
     117    166.36    -0.73827 ( 99.19%)    -0.70042 (  0.81%)    -0.73796
     118    166.67    -0.73725 ( 99.20%)    -0.69989 (  0.80%)    -0.73695
     119    169.81    -0.72676 ( 99.25%)    -0.69435 (  0.75%)    -0.72652
     120    170.54    -0.72437 ( 99.27%)    -0.69308 (  0.73%)    -0.72414
     121    171.43    -0.72146 ( 99.28%)    -0.69154 (  0.72%)    -0.72125
     122    172.41    -0.71825 ( 99.30%)    -0.68984 (  0.70%)    -0.71805
     123    173.33    -0.71529 ( 99.31%)    -0.68827 (  0.69%)    -0.71510
     124    174.13    -0.71272 ( 99.32%)    -0.68691 (  0.68%)    -0.71254
     125    174.54    -0.71140 ( 99.33%)    -0.68621 (  0.67%)    -0.71123
     126    174.86    -0.71038 ( 99.34%)    -0.68567 (  0.66%)    -0.71021
     127    174.96    -0.71006 ( 99.34%)    -0.68550 (  0.66%)    -0.70990
     128    175.47    -0.70843 ( 99.35%)    -0.68464 (  0.65%)    -0.70827
     129    175.91    -0.70702 ( 99.35%)    -0.68389 (  0.65%)    -0.70687
     130    177.37    -0.70241 ( 99.37%)    -0.68144 (  0.63%)    -0.70228
     131    178.85    -0.69779 ( 99.39%)    -0.67898 (  0.61%)    -0.69767
     132    180.16    -0.69373 ( 99.41%)    -0.67683 (  0.59%)    -0.69363
     133    180.87    -0.69154 ( 99.42%)    -0.67566 (  0.58%)    -0.69144
     134    181.07    -0.69091 ( 99.42%)    -0.67532 (  0.58%)    -0.69082
     135    181.23    -0.69043 ( 99.42%)    -0.67507 (  0.58%)    -0.69034
     136    181.53    -0.68951 ( 99.43%)    -0.67458 (  0.57%)    -0.68942
     137    182.26    -0.68729 ( 99.44%)    -0.67339 (  0.56%)    -0.68721
     138    182.29    -0.68718 ( 99.44%)    -0.67334 (  0.56%)    -0.68710
     139    182.33    -0.68708 ( 99.44%)    -0.67328 (  0.56%)    -0.68700
     140    182.47    -0.68664 ( 99.44%)    -0.67305 (  0.56%)    -0.68656
     141    182.81    -0.68560 ( 99.44%)    -0.67250 (  0.56%)    -0.68553
     142    183.63    -0.68312 ( 99.45%)    -0.67117 (  0.55%)    -0.68305
     143    185.17    -0.67847 ( 99.47%)    -0.66869 (  0.53%)    -0.67842
     144    185.83    -0.67652 ( 99.48%)    -0.66765 (  0.52%)    -0.67647
     145    186.83    -0.67354 ( 99.49%)    -0.66605 (  0.51%)    -0.67350
     146    188.12    -0.66974 ( 99.50%)    -0.66402 (  0.50%)    -0.66971
     147    188.67    -0.66810 ( 99.51%)    -0.66315 (  0.49%)    -0.66808
     148    189.05    -0.66701 ( 99.51%)    -0.66256 (  0.49%)    -0.66699
     149    191.22    -0.66068 ( 99.53%)    -0.65916 (  0.47%)    -0.66067
     150    195.71    -0.64790 ( 99.58%)    -0.65230 (  0.42%)    -0.64792
     151    195.79    -0.64768 ( 99.58%)    -0.65218 (  0.42%)    -0.64770
     152    195.85    -0.64749 ( 99.58%)    -0.65208 (  0.42%)    -0.64751
     153    195.92    -0.64729 ( 99.58%)    -0.65197 (  0.42%)    -0.64731
     154    196.04    -0.64698 ( 99.58%)    -0.65180 (  0.42%)    -0.64700
     155    196.07    -0.64687 ( 99.58%)    -0.65174 (  0.42%)    -0.64689
     156    196.16    -0.64664 ( 99.58%)    -0.65162 (  0.42%)    -0.64666
     157    196.17    -0.64659 ( 99.58%)    -0.65159 (  0.42%)    -0.64661
     158    196.38    -0.64602 ( 99.58%)    -0.65128 (  0.42%)    -0.64604
     159    196.91    -0.64453 ( 99.59%)    -0.65048 (  0.41%)    -0.64455
     160    197.15    -0.64388 ( 99.59%)    -0.65013 (  0.41%)    -0.64390
     161    197.85    -0.64193 ( 99.59%)    -0.64908 (  0.41%)    -0.64196
     162    198.41    -0.64036 ( 99.60%)    -0.64823 (  0.40%)    -0.64039
     163    199.24    -0.63807 ( 99.60%)    -0.64700 (  0.40%)    -0.63811
     164    199.86    -0.63637 ( 99.61%)    -0.64608 (  0.39%)    -0.63641
     165    200.40    -0.63488 ( 99.61%)    -0.64528 (  0.39%)    -0.63492
     166    201.40    -0.63215 ( 99.62%)    -0.64380 (  0.38%)    -0.63220
     167    202.15    -0.63013 ( 99.63%)    -0.64271 (  0.37%)    -0.63018
     168    202.62    -0.62885 ( 99.63%)    -0.64202 (  0.37%)    -0.62890
     169    202.63    -0.62881 ( 99.63%)    -0.64200 (  0.37%)    -0.62886
     170    202.76    -0.62847 ( 99.63%)    -0.64181 (  0.37%)    -0.62852
     171    203.01    -0.62781 ( 99.63%)    -0.64145 (  0.37%)    -0.62786
     172    203.08    -0.62761 ( 99.63%)    -0.64135 (  0.37%)    -0.62766
     173    203.19    -0.62731 ( 99.63%)    -0.64118 (  0.37%)    -0.62736
     174    203.30    -0.62703 ( 99.64%)    -0.64103 (  0.36%)    -0.62708
     175    203.41    -0.62672 ( 99.64%)    -0.64087 (  0.36%)    -0.62678
     176    203.53    -0.62639 ( 99.64%)    -0.64068 (  0.36%)    -0.62644
     177    203.63    -0.62612 ( 99.64%)    -0.64054 (  0.36%)    -0.62617
     178    203.70    -0.62594 ( 99.64%)    -0.64044 (  0.36%)    -0.62600
     179    206.11    -0.61951 ( 99.65%)    -0.63696 (  0.35%)    -0.61958
     180    208.73    -0.61263 ( 99.67%)    -0.63322 (  0.33%)    -0.61270
     181    209.76    -0.60995 ( 99.68%)    -0.63176 (  0.32%)    -0.61002
     182    210.53    -0.60794 ( 99.68%)    -0.63067 (  0.32%)    -0.60801
     183    213.09    -0.60137 ( 99.70%)    -0.62709 (  0.30%)    -0.60145
     184    214.18    -0.59861 ( 99.70%)    -0.62558 (  0.30%)    -0.59869
     185    215.59    -0.59506 ( 99.71%)    -0.62364 (  0.29%)    -0.59514
     186    218.86    -0.58691 ( 99.73%)    -0.61918 (  0.27%)    -0.58700
     187    222.50    -0.57800 ( 99.75%)    -0.61429 (  0.25%)    -0.57810
     188    222.68    -0.57757 ( 99.75%)    -0.61405 (  0.25%)    -0.57766
     189    226.22    -0.56908 ( 99.76%)    -0.60937 (  0.24%)    -0.56918
     190    229.55    -0.56126 ( 99.78%)    -0.60505 (  0.22%)    -0.56135
     191    232.01    -0.55555 ( 99.78%)    -0.60189 (  0.22%)    -0.55565
     192    233.24    -0.55273 ( 99.79%)    -0.60033 (  0.21%)    -0.55284
     193    244.69    -0.52729 ( 99.83%)    -0.58613 (  0.17%)    -0.52739
     194    256.00    -0.50353 ( 99.85%)    -0.57274 (  0.15%)    -0.50364
     195    262.08    -0.49131 ( 99.87%)    -0.56579 (  0.13%)    -0.49141
     196    262.12    -0.49123 ( 99.87%)    -0.56574 (  0.13%)    -0.49133
     197    262.19    -0.49110 ( 99.87%)    -0.56566 (  0.13%)    -0.49120
     198    262.26    -0.49096 ( 99.87%)    -0.56559 (  0.13%)    -0.49106
     199    262.33    -0.49082 ( 99.87%)    -0.56550 (  0.13%)    -0.49091
     200    262.40    -0.49068 ( 99.87%)    -0.56543 (  0.13%)    -0.49078
     201    262.46    -0.49055 ( 99.87%)    -0.56535 (  0.13%)    -0.49065
     202    262.79    -0.48991 ( 99.87%)    -0.56499 (  0.13%)    -0.49001
     203    263.27    -0.48896 ( 99.87%)    -0.56444 (  0.13%)    -0.48905
     204    266.04    -0.48354 ( 99.88%)    -0.56135 (  0.12%)    -0.48364
     205    267.61    -0.48049 ( 99.88%)    -0.55960 (  0.12%)    -0.48058
     206    269.95    -0.47600 ( 99.88%)    -0.55702 (  0.12%)    -0.47609
     207    273.60    -0.46910 ( 99.89%)    -0.55305 (  0.11%)    -0.46919
     208    278.02    -0.46089 ( 99.90%)    -0.54830 (  0.10%)    -0.46098
     209    282.87    -0.45207 ( 99.90%)    -0.54317 (  0.10%)    -0.45215
     210    286.99    -0.44473 ( 99.91%)    -0.53889 (  0.09%)    -0.44482
     211    287.79    -0.44332 ( 99.91%)    -0.53806 (  0.09%)    -0.44340
     212    292.68    -0.43483 ( 99.91%)    -0.53308 (  0.09%)    -0.43491
     213    296.01    -0.42914 ( 99.92%)    -0.52972 (  0.08%)    -0.42922
     214    296.88    -0.42767 ( 99.92%)    -0.52885 (  0.08%)    -0.42776
     215    298.69    -0.42464 ( 99.92%)    -0.52706 (  0.08%)    -0.42472
   ------------------------------------------------------------------------

   temp. (K)  partition function   enthalpy   heat capacity  entropy
                                   cal/mol     cal/K/mol   cal/K/mol   J/K/mol
 298.15  VIB  0.425+129           142176.957    883.114    921.619
         ROT  0.646E+11              888.752      2.981     52.447
         INT  0.275+140           143065.709    886.095    974.066
         TR   0.238E+30             1481.254      4.968     50.633
         TOT                      144546.9630   891.0631  1024.6994  4287.3423

       T/K    H(0)-H(T)+PV         H(T)/Eh          T*S/Eh         G(T)/Eh
   ------------------------------------------------------------------------
    298.15    0.230350E+00    0.267552E+01    0.486868E+00    0.218865E+01
   ------------------------------------------------------------------------

         :::::::::::::::::::::::::::::::::::::::::::::::::::::
         ::                  THERMODYNAMIC                  ::
         :::::::::::::::::::::::::::::::::::::::::::::::::::::
         :: total free energy        -642.775921837636 Eh   ::
         ::.................................................::
         :: total energy             -644.964570822845 Eh   ::
         :: zero point energy           2.445166491711 Eh   ::
         :: G(RRHO) w/o ZPVE           -0.256517506502 Eh   ::
         :: G(RRHO) contrib.            2.188648985208 Eh   ::
         :::::::::::::::::::::::::::::::::::::::::::::::::::::

optimized geometry written to: xtbopt.xyz


           -------------------------------------------------
          | TOTAL ENERGY             -644.964570822845 Eh   |
          | TOTAL ENTHALPY           -642.289054083164 Eh   |
          | TOTAL FREE ENERGY        -642.775921837636 Eh   |
          | GRADIENT NORM               0.000847379538 Eh/α |
          | HOMO-LUMO GAP               0.846480932557 eV   |
           -------------------------------------------------

------------------------------------------------------------------------
 * finished run on 2021/11/19 at 10:12:35.789     
------------------------------------------------------------------------
 total:
 * wall-time:     0 d,  2 h,  4 min, 32.244 sec
 *  cpu-time:     0 d,  2 h,  4 min, 32.332 sec
 * ratio c/w:     1.000 speedup
 SCF:
 * wall-time:     0 d,  0 h,  0 min, 36.713 sec
 *  cpu-time:     0 d,  0 h,  0 min, 36.714 sec
 * ratio c/w:     1.000 speedup
 ANC optimizer:
 * wall-time:     0 d,  0 h, 10 min, 30.422 sec
 *  cpu-time:     0 d,  0 h, 10 min, 30.428 sec
 * ratio c/w:     1.000 speedup
 analytical hessian:
 * wall-time:     0 d,  1 h, 53 min, 24.379 sec
 *  cpu-time:     0 d,  1 h, 53 min, 24.460 sec
 * ratio c/w:     1.000 speedup

