365
 energy: -641.484257693297 gnorm: 2.613591908116 xtb: 6.4.1 (bd6e46d)
Zn       47.48343600000000    0.04017000000000   -0.01326400000000
C        49.81242700000001   -3.10662300000000    1.30942500000000
C        50.72853400000001   -2.16241500000000    1.25914300000000
C        50.31735500000000   -1.10851100000000    0.33785100000000
C        50.93622500000000    0.01583500000000   -0.00855900000000
C        50.23218300000000    1.23578300000000   -0.37266400000000
C        50.56029400000001    2.19583800000000   -1.22013800000000
C        49.52551400000001    3.21212300000000   -1.23703600000000
C        48.58924600000000    2.83566100000000   -0.39014400000000
N        48.99123600000000    1.60265000000000    0.17367300000000
C        47.32817200000001    3.48066000000000   -0.01099200000000
C        46.23295400000001    2.84587800000000    0.33976800000000
C        45.15932900000000    3.16383400000000    1.30879600000000
C        44.32176600000000    2.16708000000000    1.23163000000000
C        44.76006300000000    1.16339700000000    0.25117800000000
N        45.86500200000000    1.60225000000000   -0.23311500000000
C        44.14922900000001   -0.08987400000000   -0.16237000000000
C        44.81338900000000   -1.19438000000000   -0.41679500000000
C        44.43954000000000   -2.25732200000000   -1.37432200000000
C        45.38828800000000   -3.15107800000000   -1.28530300000000
C        46.37401200000000   -2.71362800000000   -0.30242500000000
N        46.02096600000000   -1.56782300000000    0.19437200000000
C        47.60489900000000   -3.36969800000000    0.14329600000000
C        48.72794100000000   -2.72383700000000    0.41041700000000
N        49.05654100000000   -1.47639600000000   -0.18798700000000
H        49.87268900000000   -4.01640400000000    1.92697100000000
H        51.64486200000000   -2.20236500000000    1.83719100000000
H        51.48765900000000    2.21263400000000   -1.82128100000000
H        49.54241300000001    4.11681200000000   -1.84965700000000
H        47.28044900000000    4.57546300000000   -0.01477000000000
H        45.10650700000000    4.04255900000000    1.93378800000000
H        43.41013600000000    2.13141000000000    1.84895400000000
H        43.05097800000000   -0.08696300000000   -0.26164100000000
H        43.57068500000000   -2.30978700000000   -2.02327200000000
H        45.38544200000000   -4.06738600000000   -1.88406200000000
H        47.56941700000000   -4.46550000000000    0.25522100000000
Zn      175.83845400000001   -0.00720600000000   -0.01769700000000
C       173.50946300000001    2.83958600000000    1.86580800000000
C       172.59335600000000    1.92109700000000    1.64123400000000
C       173.00453600000000    1.05640000000000    0.54042000000000
C       172.38566499999999    0.01583500000000   -0.00855900000000
C       173.08970700000003   -1.11539000000000   -0.59266200000000
C       172.76159699999999   -1.90156200000000   -1.60352900000000
C       173.79637600000001   -2.89707100000000   -1.80866900000000
C       174.73264499999999   -2.68425500000000   -0.90663900000000
N       174.33065400000001   -1.57724300000000   -0.12386700000000
C       175.99371900000000   -3.38839600000000   -0.65372500000000
C       177.08893600000002   -2.82970300000000   -0.19129200000000
C       178.16256200000001   -3.32190800000000    0.70192900000000
C       179.00012500000000   -2.32814100000000    0.81101500000000
C       178.56182699999999   -1.15999300000000    0.03378000000000
N       177.45688899999999   -1.50138500000000   -0.52352000000000
C       179.17266200000003    0.14824300000000   -0.14009000000000
C       178.50850100000000    1.28077600000000   -0.18519600000000
C       178.88235000000000    2.50290200000000   -0.92891100000000
C       177.93360300000001    3.36462900000000   -0.67563300000000
C       176.94787900000000    2.75243400000000    0.20903100000000
N       177.30092500000001    1.53435600000000    0.48464100000000
C       175.71699100000001    3.31442900000000    0.76872500000000
C       174.59395000000004    2.63022400000000    0.91139300000000
N       174.26534899999999    1.51544900000000    0.09195800000000
H       173.44920099999999    3.61901100000000    2.64141200000000
H       171.67702900000000    1.85311600000000    2.21666000000000
H       171.83423199999999   -1.80654500000000   -2.19735300000000
H       173.77947700000001   -3.67240600000000   -2.57848900000000
H       176.04144199999999   -4.46349400000000   -0.86053900000000
H       178.21538300000000   -4.30132500000000    1.15305700000000
H       179.91175500000003   -2.40761300000000    1.42424000000000
H       180.27091200000001    0.16379800000000   -0.23817700000000
H       179.75120600000000    2.67484500000000   -1.55686400000000
H       177.93644900000004    4.37611000000000   -1.09401000000000
H       175.75247300000001    4.37044500000000    1.08199400000000
C        53.90823700000000    0.02696600000000   -0.00451800000000
C        55.12377000000001    0.00162200000000   -0.01499700000000
C        56.54528700000001   -0.01980100000000   -0.01917300000000
C        57.75384800000000   -0.02201200000000   -0.01906800000000
C        59.17492400000000   -0.00305200000000   -0.01969500000000
C        60.38606600000000    0.02696600000000   -0.00451800000000
C        69.48341300000000    0.02696600000000   -0.00451800000000
C        70.69894499999999    0.00162200000000   -0.01499700000000
C        72.12046200000000   -0.01980100000000   -0.01917300000000
C        73.32902400000000   -0.02201200000000   -0.01906800000000
C        74.75009900000001   -0.00305200000000   -0.01969500000000
C        75.96124100000000    0.02696600000000   -0.00451800000000
C        85.05858800000000    0.02696600000000   -0.00451800000000
C        86.27412100000001    0.00162200000000   -0.01499700000000
C        87.69563800000000   -0.01980100000000   -0.01917300000000
C        88.90419900000001   -0.02201200000000   -0.01906800000000
C        90.32527500000000   -0.00305200000000   -0.01969500000000
C        91.53641700000000    0.02696600000000   -0.00451800000000
C       100.63376400000000    0.02696600000000   -0.00451800000000
C       101.84929600000000    0.00162200000000   -0.01499700000000
C       103.27081300000000   -0.01980100000000   -0.01917300000000
C       104.47937500000000   -0.02201200000000   -0.01906800000000
C       105.90045000000002   -0.00305200000000   -0.01969500000000
C       107.11159300000000    0.02696600000000   -0.00451800000000
C       116.20893900000002    0.02696600000000   -0.00451800000000
C       117.42447199999999    0.00162200000000   -0.01499700000000
C       118.84598900000002   -0.01980100000000   -0.01917300000000
C       120.05455100000000   -0.02201200000000   -0.01906800000000
C       121.47562600000001   -0.00305200000000   -0.01969500000000
C       122.68676800000001    0.02696600000000   -0.00451800000000
C       131.78411500000001    0.02696600000000   -0.00451800000000
C       132.99964800000001    0.00162200000000   -0.01499700000000
C       134.42116500000000   -0.01980100000000   -0.01917300000000
C       135.62972600000001   -0.02201200000000   -0.01906800000000
C       137.05080100000001   -0.00305200000000   -0.01969500000000
C       138.26194400000003    0.02696600000000   -0.00451800000000
C       147.35928999999999    0.02696600000000   -0.00451800000000
C       148.57482300000001    0.00162200000000   -0.01499700000000
C       149.99634000000000   -0.01980100000000   -0.01917300000000
C       151.20490200000003   -0.02201200000000   -0.01906800000000
C       152.62597700000001   -0.00305200000000   -0.01969500000000
C       153.83711900000000    0.02696600000000   -0.00451800000000
C       162.93446599999999    0.02696600000000   -0.00451800000000
C       164.14999900000001    0.00162200000000   -0.01499700000000
C       165.57151600000000   -0.01980100000000   -0.01917300000000
C       166.78007700000001   -0.02201200000000   -0.01906800000000
C       168.20115300000001   -0.00305200000000   -0.01969500000000
C       169.41229500000003    0.02696600000000   -0.00451800000000
Zn       64.97465600000000    0.03858300000000    0.00031000000000
C        62.69484500000000   -3.22286400000000   -0.90935500000000
C        61.73863600000000   -2.32351400000000   -1.01138200000000
C        62.13101000000001   -1.16120900000000   -0.20886600000000
C        61.49589400000001   -0.00993700000000    0.00340000000000
C        62.18135100000000    1.26466300000000    0.22963000000000
C        61.84606100000001    2.34326300000000    0.93387000000000
C        62.87060200000000    3.36258000000000    0.84328800000000
C        63.82119900000000    2.86565500000000    0.06992400000000
N        63.44420500000000    1.54905000000000   -0.34621900000000
C        65.06833899999999    3.47735700000000   -0.34694200000000
C        66.16989000000000    2.81010000000000   -0.67871300000000
C        67.16343700000000    3.06208400000000   -1.71288300000000
C        68.05732000000000    2.10122500000000   -1.61139900000000
C        67.67762200000000    1.18934100000000   -0.50742200000000
N        66.58270700000000    1.63866000000000   -0.00005500000000
C        68.33482900000001   -0.00993700000000    0.00340000000000
C        67.71141700000000   -1.07911900000000    0.46491700000000
C        68.09013000000000   -2.01123400000000    1.54039300000000
C        67.14946100000000   -2.92538000000000    1.62625900000000
C        66.14116000000000   -2.62960100000000    0.62883200000000
N        66.47893500000001   -1.57622400000000   -0.02046400000000
C        64.88876700000000   -3.33660800000000    0.29763800000000
C        63.77489000000000   -2.73991200000000   -0.04970300000000
N        63.39277800000001   -1.45715500000000    0.36798000000000
H        62.69519000000000   -4.21393800000000   -1.40059000000000
H        60.83010200000000   -2.44520800000000   -1.59253000000000
H        60.92120800000000    2.46161400000000    1.51079600000000
H        62.89789700000000    4.35174400000000    1.29993900000000
H        65.15427900000000    4.57473400000000   -0.40896500000000
H        67.19610900000001    3.86830000000000   -2.43970700000000
H        68.95038099999999    1.98825700000000   -2.24517400000000
H        69.00488000000000   -1.93682800000000    2.15056200000000
H        67.16850800000000   -3.73898800000000    2.33452600000000
H        64.92725100000000   -4.43656800000000    0.35667500000000
Zn       80.54983199999999    0.03858300000000    0.00031000000000
C        78.27002100000000   -3.22286400000000   -0.90935500000000
C        77.31381200000000   -2.32351400000000   -1.01138200000000
C        77.70618600000000   -1.16120900000000   -0.20886600000000
C        77.07106900000001   -0.00993700000000    0.00340000000000
C        77.75652599999999    1.26466300000000    0.22963000000000
C        77.42123600000001    2.34326300000000    0.93387000000000
C        78.44577700000001    3.36258000000000    0.84328800000000
C        79.39637500000001    2.86565500000000    0.06992400000000
N        79.01938000000000    1.54905000000000   -0.34621900000000
C        80.64351400000000    3.47735700000000   -0.34694200000000
C        81.74506599999999    2.81010000000000   -0.67871300000000
C        82.73861200000000    3.06208400000000   -1.71288300000000
C        83.63249500000002    2.10122500000000   -1.61139900000000
C        83.25279700000000    1.18934100000000   -0.50742200000000
N        82.15788200000000    1.63866000000000   -0.00005500000000
C        83.91000400000000   -0.00993700000000    0.00340000000000
C        83.28659300000001   -1.07911900000000    0.46491700000000
C        83.66530600000000   -2.01123400000000    1.54039300000000
C        82.72463700000002   -2.92538000000000    1.62625900000000
C        81.71633500000000   -2.62960100000000    0.62883200000000
N        82.05410999999999   -1.57622400000000   -0.02046400000000
C        80.46394200000002   -3.33660800000000    0.29763800000000
C        79.35006600000001   -2.73991200000000   -0.04970300000000
N        78.96795300000001   -1.45715500000000    0.36798000000000
H        78.27036500000000   -4.21393800000000   -1.40059000000000
H        76.40527700000000   -2.44520800000000   -1.59253000000000
H        76.49638400000002    2.46161400000000    1.51079600000000
H        78.47307200000000    4.35174400000000    1.29993900000000
H        80.72945400000002    4.57473400000000   -0.40896500000000
H        82.77128500000002    3.86830000000000   -2.43970700000000
H        84.52555700000001    1.98825700000000   -2.24517400000000
H        84.58005600000001   -1.93682800000000    2.15056200000000
H        82.74368300000000   -3.73898800000000    2.33452600000000
H        80.50242700000000   -4.43656800000000    0.35667500000000
Zn       96.12500700000000    0.03858300000000    0.00031000000000
C        93.84519600000000   -3.22286400000000   -0.90935500000000
C        92.88898700000000   -2.32351400000000   -1.01138200000000
C        93.28136100000000   -1.16120900000000   -0.20886600000000
C        92.64624499999999   -0.00993700000000    0.00340000000000
C        93.33170200000002    1.26466300000000    0.22963000000000
C        92.99641200000001    2.34326300000000    0.93387000000000
C        94.02095300000001    3.36258000000000    0.84328800000000
C        94.97154999999999    2.86565500000000    0.06992400000000
N        94.59455600000000    1.54905000000000   -0.34621900000000
C        96.21869000000001    3.47735700000000   -0.34694200000000
C        97.32024100000000    2.81010000000000   -0.67871300000000
C        98.31378800000000    3.06208400000000   -1.71288300000000
C        99.20767100000000    2.10122500000000   -1.61139900000000
C        98.82797300000001    1.18934100000000   -0.50742200000000
N        97.73305800000000    1.63866000000000   -0.00005500000000
C        99.48518000000000   -0.00993700000000    0.00340000000000
C        98.86176800000000   -1.07911900000000    0.46491700000000
C        99.24048100000000   -2.01123400000000    1.54039300000000
C        98.29981200000000   -2.92538000000000    1.62625900000000
C        97.29151100000000   -2.62960100000000    0.62883200000000
N        97.62928600000001   -1.57622400000000   -0.02046400000000
C        96.03911800000000   -3.33660800000000    0.29763800000000
C        94.92524100000000   -2.73991200000000   -0.04970300000000
N        94.54312899999999   -1.45715500000000    0.36798000000000
H        93.84554100000000   -4.21393800000000   -1.40059000000000
H        91.98045300000000   -2.44520800000000   -1.59253000000000
H        92.07155899999999    2.46161400000000    1.51079600000000
H        94.04824800000000    4.35174400000000    1.29993900000000
H        96.30463000000000    4.57473400000000   -0.40896500000000
H        98.34645999999999    3.86830000000000   -2.43970700000000
H       100.10073300000001    1.98825700000000   -2.24517400000000
H       100.15523100000000   -1.93682800000000    2.15056200000000
H        98.31885900000002   -3.73898800000000    2.33452600000000
H        96.07760200000000   -4.43656800000000    0.35667500000000
Zn      111.70018300000001    0.03858300000000    0.00031000000000
C       109.42037200000000   -3.22286400000000   -0.90935500000000
C       108.46416300000001   -2.32351400000000   -1.01138200000000
C       108.85653700000002   -1.16120900000000   -0.20886600000000
C       108.22141999999999   -0.00993700000000    0.00340000000000
C       108.90687699999999    1.26466300000000    0.22963000000000
C       108.57158699999999    2.34326300000000    0.93387000000000
C       109.59612799999999    3.36258000000000    0.84328800000000
C       110.54672600000001    2.86565500000000    0.06992400000000
N       110.16973200000000    1.54905000000000   -0.34621900000000
C       111.79386500000000    3.47735700000000   -0.34694200000000
C       112.89541700000001    2.81010000000000   -0.67871300000000
C       113.88896300000000    3.06208400000000   -1.71288300000000
C       114.78284700000002    2.10122500000000   -1.61139900000000
C       114.40314800000000    1.18934100000000   -0.50742200000000
N       113.30823300000002    1.63866000000000   -0.00005500000000
C       115.06035500000000   -0.00993700000000    0.00340000000000
C       114.43694400000000   -1.07911900000000    0.46491700000000
C       114.81565700000002   -2.01123400000000    1.54039300000000
C       113.87498800000000   -2.92538000000000    1.62625900000000
C       112.86668700000000   -2.62960100000000    0.62883200000000
N       113.20446099999999   -1.57622400000000   -0.02046400000000
C       111.61429300000002   -3.33660800000000    0.29763800000000
C       110.50041700000000   -2.73991200000000   -0.04970300000000
N       110.11830500000001   -1.45715500000000    0.36798000000000
H       109.42071700000000   -4.21393800000000   -1.40059000000000
H       107.55562800000000   -2.44520800000000   -1.59253000000000
H       107.64673500000002    2.46161400000000    1.51079600000000
H       109.62342300000002    4.35174400000000    1.29993900000000
H       111.87980500000002    4.57473400000000   -0.40896500000000
H       113.92163600000001    3.86830000000000   -2.43970700000000
H       115.67590800000002    1.98825700000000   -2.24517400000000
H       115.73040700000000   -1.93682800000000    2.15056200000000
H       113.89403400000000   -3.73898800000000    2.33452600000000
H       111.65277800000000   -4.43656800000000    0.35667500000000
Zn      127.27535800000000    0.03858300000000    0.00031000000000
C       124.99554700000000   -3.22286400000000   -0.90935500000000
C       124.03933800000000   -2.32351400000000   -1.01138200000000
C       124.43171200000000   -1.16120900000000   -0.20886600000000
C       123.79659599999999   -0.00993700000000    0.00340000000000
C       124.48205299999999    1.26466300000000    0.22963000000000
C       124.14676300000001    2.34326300000000    0.93387000000000
C       125.17130400000001    3.36258000000000    0.84328800000000
C       126.12190099999999    2.86565500000000    0.06992400000000
N       125.74490700000000    1.54905000000000   -0.34621900000000
C       127.36904100000000    3.47735700000000   -0.34694200000000
C       128.47059200000001    2.81010000000000   -0.67871300000000
C       129.46413899999999    3.06208400000000   -1.71288300000000
C       130.35802200000001    2.10122500000000   -1.61139900000000
C       129.97832399999999    1.18934100000000   -0.50742200000000
N       128.88340900000000    1.63866000000000   -0.00005500000000
C       130.63553099999999   -0.00993700000000    0.00340000000000
C       130.01212000000001   -1.07911900000000    0.46491700000000
C       130.39083199999999   -2.01123400000000    1.54039300000000
C       129.45016300000000   -2.92538000000000    1.62625900000000
C       128.44186199999999   -2.62960100000000    0.62883200000000
N       128.77963700000001   -1.57622400000000   -0.02046400000000
C       127.18946900000000   -3.33660800000000    0.29763800000000
C       126.07559200000001   -2.73991200000000   -0.04970300000000
N       125.69347999999999   -1.45715500000000    0.36798000000000
H       124.99589200000000   -4.21393800000000   -1.40059000000000
H       123.13080400000000   -2.44520800000000   -1.59253000000000
H       123.22191100000001    2.46161400000000    1.51079600000000
H       125.19859900000000    4.35174400000000    1.29993900000000
H       127.45498100000000    4.57473400000000   -0.40896500000000
H       129.49681100000001    3.86830000000000   -2.43970700000000
H       131.25108399999999    1.98825700000000   -2.24517400000000
H       131.30558199999999   -1.93682800000000    2.15056200000000
H       129.46921000000000   -3.73898800000000    2.33452600000000
H       127.22795300000001   -4.43656800000000    0.35667500000000
Zn      142.85053400000001    0.03858300000000    0.00031000000000
C       140.57072299999999   -3.22286400000000   -0.90935500000000
C       139.61451400000001   -2.32351400000000   -1.01138200000000
C       140.00688800000000   -1.16120900000000   -0.20886600000000
C       139.37177100000002   -0.00993700000000    0.00340000000000
C       140.05722800000001    1.26466300000000    0.22963000000000
C       139.72193800000002    2.34326300000000    0.93387000000000
C       140.74647900000002    3.36258000000000    0.84328800000000
C       141.69707700000001    2.86565500000000    0.06992400000000
N       141.32008300000001    1.54905000000000   -0.34621900000000
C       142.94421600000001    3.47735700000000   -0.34694200000000
C       144.04576800000001    2.81010000000000   -0.67871300000000
C       145.03931399999999    3.06208400000000   -1.71288300000000
C       145.93319800000000    2.10122500000000   -1.61139900000000
C       145.55350000000001    1.18934100000000   -0.50742200000000
N       144.45858400000000    1.63866000000000   -0.00005500000000
C       146.21070599999999   -0.00993700000000    0.00340000000000
C       145.58729500000001   -1.07911900000000    0.46491700000000
C       145.96600799999999   -2.01123400000000    1.54039300000000
C       145.02533900000000   -2.92538000000000    1.62625900000000
C       144.01703800000001   -2.62960100000000    0.62883200000000
N       144.35481300000001   -1.57622400000000   -0.02046400000000
C       142.76464400000000   -3.33660800000000    0.29763800000000
C       141.65076800000000   -2.73991200000000   -0.04970300000000
N       141.26865599999999   -1.45715500000000    0.36798000000000
H       140.57106800000000   -4.21393800000000   -1.40059000000000
H       138.70597900000001   -2.44520800000000   -1.59253000000000
H       138.79708600000001    2.46161400000000    1.51079600000000
H       140.77377400000000    4.35174400000000    1.29993900000000
H       143.03015600000001    4.57473400000000   -0.40896500000000
H       145.07198700000004    3.86830000000000   -2.43970700000000
H       146.82625899999999    1.98825700000000   -2.24517400000000
H       146.88075800000001   -1.93682800000000    2.15056200000000
H       145.04438600000000   -3.73898800000000    2.33452600000000
H       142.80312900000001   -4.43656800000000    0.35667500000000
Zn      158.42570900000001    0.03858300000000    0.00031000000000
C       156.14589899999999   -3.22286400000000   -0.90935500000000
C       155.18968899999999   -2.32351400000000   -1.01138200000000
C       155.58206300000001   -1.16120900000000   -0.20886600000000
C       154.94694699999999   -0.00993700000000    0.00340000000000
C       155.63240400000001    1.26466300000000    0.22963000000000
C       155.29711399999999    2.34326300000000    0.93387000000000
C       156.32165499999999    3.36258000000000    0.84328800000000
C       157.27225200000004    2.86565500000000    0.06992400000000
N       156.89525800000004    1.54905000000000   -0.34621900000000
C       158.51939200000004    3.47735700000000   -0.34694200000000
C       159.62094400000004    2.81010000000000   -0.67871300000000
C       160.61448999999999    3.06208400000000   -1.71288300000000
C       161.50837300000001    2.10122500000000   -1.61139900000000
C       161.12867500000002    1.18934100000000   -0.50742200000000
N       160.03376000000000    1.63866000000000   -0.00005500000000
C       161.78588200000002   -0.00993700000000    0.00340000000000
C       161.16247100000001   -1.07911900000000    0.46491700000000
C       161.54118299999999   -2.01123400000000    1.54039300000000
C       160.60051500000000   -2.92538000000000    1.62625900000000
C       159.59221299999999   -2.62960100000000    0.62883200000000
N       159.92998800000004   -1.57622400000000   -0.02046400000000
C       158.33982000000000   -3.33660800000000    0.29763800000000
C       157.22594300000000   -2.73991200000000   -0.04970300000000
N       156.84383099999999   -1.45715500000000    0.36798000000000
H       156.14624300000000   -4.21393800000000   -1.40059000000000
H       154.28115500000001   -2.44520800000000   -1.59253000000000
H       154.37226200000001    2.46161400000000    1.51079600000000
H       156.34895000000000    4.35174400000000    1.29993900000000
H       158.60533200000000    4.57473400000000   -0.40896500000000
H       160.64716200000001    3.86830000000000   -2.43970700000000
H       162.40143500000002    1.98825700000000   -2.24517400000000
H       162.45593299999999   -1.93682800000000    2.15056200000000
H       160.61956100000003   -3.73898800000000    2.33452600000000
H       158.37830400000001   -4.43656800000000    0.35667500000000
365
 energy: -642.713312745913 gnorm: 1.217745285909 xtb: 6.4.1 (bd6e46d)
Zn       47.48670749938791    0.04060896278474   -0.01291317398135
C        49.81032483607203   -3.11152772652109    1.30735834670748
C        50.73480893042642   -2.16069029196518    1.25861843015141
C        50.31482575345422   -1.11149646603085    0.34028307696475
C        50.92873741930494    0.02452939310375   -0.01072191169584
C        50.22784462880318    1.22968072885854   -0.36634102049916
C        50.56539547121729    2.20978985125463   -1.23043164437483
C        49.54027328365580    3.21353797960730   -1.24525822898325
C        48.58322644185574    2.82626953618559   -0.38375277075591
N        48.98325366366072    1.59742096999995    0.17548387873405
C        47.33769958902303    3.48284096456678   -0.01272874547562
C        46.22456397585955    2.83836135646165    0.34140857178499
C        45.16391014479557    3.16855623933852    1.30299880926862
C        44.30975872723216    2.16141275869015    1.23361552857869
C        44.75469744932050    1.16362199021686    0.25775527810856
N        45.87858350400708    1.59834758872473   -0.23085194383338
C        44.14329830505321   -0.07845411586287   -0.15910179399275
C        44.81666355289495   -1.20006778077728   -0.41950003250234
C        44.43501480851150   -2.25370826446036   -1.37003563077262
C        45.39316200465306   -3.16102286308403   -1.28486739912861
C        46.37939652872251   -2.72053783286045   -0.30502837584068
N        46.02159580128697   -1.55825750533279    0.18836388021466
C        47.59384619916506   -3.37373730587298    0.13954939790725
C        48.73408860447969   -2.71514559551759    0.41062815514277
N        49.05560434279643   -1.47808758368018   -0.17930617159886
H        49.87049333254586   -4.01401339688357    1.92437876382386
H        51.64539178557979   -2.19980310920891    1.83610811982421
H        51.48543336983393    2.21438155876086   -1.82057399255343
H        49.54362371790374    4.11524777776556   -1.84924600532863
H        47.28402274244361    4.57439574096137   -0.01316085750572
H        45.10812490479819    4.04193367138847    1.93253756283695
H        43.41050997401953    2.12895892540840    1.84764310164096
H        43.05258745621298   -0.08543944072590   -0.26287028321081
H        43.57159425520274   -2.30725173841266   -2.02129847025324
H        45.38829760781061   -4.06722462904791   -1.88246124829541
H        47.56847301816070   -4.46343224234109    0.25536356413678
Zn      175.83518531573429   -0.00769931197333   -0.01743543857203
C       173.51157092469063    2.84478632553612    1.86468665730330
C       172.58708459367426    1.91949666263857    1.64038617466016
C       173.00709730954702    1.05889221462367    0.54335682057349
C       172.39312366913771    0.00773088567753   -0.01228627030191
C       173.09406199260596   -1.11055305578222   -0.58532472989188
C       172.75650198969709   -1.91335807460711   -1.61622021460000
C       173.78162198566460   -2.89693846822670   -1.81700491514007
C       174.73866859493276   -2.67622220746715   -0.89861484199014
N       174.33862987428168   -1.57244199585572   -0.12112642249046
C       175.98418397868369   -3.39022227965186   -0.65583912053497
C       177.09732920675199   -2.82261515945129   -0.18828019473666
C       178.15797562828749   -3.32547068743135    0.69535549212965
C       179.01213468354339   -2.32293527359177    0.81401261384967
C       178.56720292795598   -1.16142943165526    0.04020352188125
N       177.44329950131453   -1.49797814134007   -0.52057403953766
C       179.17859388634028    0.13640675036551   -0.13899397239913
C       178.50522282152096    1.28687153693039   -0.18680173415855
C       178.88687343215142    2.49854961518334   -0.92536966193799
C       177.92872423906553    3.37432129558157   -0.67335558589707
C       176.94249429514477    2.75971148487077    0.20775248297328
N       177.30030011567152    1.52606817358373    0.47696188862418
C       175.72804450749945    3.31910017334219    0.76579150729669
C       174.58780514592939    2.62164756030923    0.90998975324423
N       174.26630545687044    1.51550502004846    0.10081496785281
H       173.45139767310840    3.61714367261907    2.63842227749809
H       171.67649930113572    1.85079933301590    2.21511967926336
H       171.83645841061173   -1.80839062329279   -2.19698664186471
H       173.77826746315134   -3.67094626979924   -2.57779711567266
H       176.03787044023389   -4.46274522148550   -0.85876610881363
H       178.21376490352768   -4.30047902765230    1.15194403229719
H       179.91138193138946   -2.40496124424054    1.42340644614740
H       180.26930351788445    0.16252877847446   -0.23966403384579
H       179.75029680681200    2.67198726529140   -1.55539459993234
H       177.93359316567609    4.37565545216029   -1.09246631072058
H       175.75341798730182    4.36839000353541    1.08175077819954
C        53.90723565076485    0.02688340057943   -0.00438300632261
C        55.13066198616251    0.00141223621123   -0.01490567648386
C        56.53572690142988   -0.01948728420887   -0.01918053425136
C        57.76001292800736   -0.02164305175196   -0.01904765501639
C        59.13801124605406   -0.00346549505322   -0.01969441918500
C        60.32617498147928    0.03260432902832   -0.00561688678131
C        69.53412961938176    0.03129582574226   -0.00445483318134
C        70.73069875134810    0.00112861829796   -0.01476622253569