 Entering Gaussian System
 *********************************************
 Gaussian 98:
 frequency output generated by the xtb code
 *********************************************
                         Standard orientation:
 --------------------------------------------------------------------
  Center     Atomic     Atomic              Coordinates (Angstroms)
  Number     Number      Type              X           Y           Z
 --------------------------------------------------------------------
    1         27             0       14.501349   -0.001048   -0.011527
    2          6             0       16.993803   -3.410744    0.109126
    3          6             0       17.946758   -2.451444    0.102108
    4          6             0       17.258164   -1.198454    0.041209
    5          6             0       17.923843    0.027926   -0.009309
    6          6             0       17.237662    1.243183   -0.049621
    7          6             0       17.905155    2.508315   -0.091091
    8          6             0       16.936437    3.451617   -0.075567
    9          6             0       15.688357    2.752472   -0.028000
   10          7             0       15.883754    1.396159   -0.021424
   11          6             0       14.469744    3.393819    0.023082
   12          6             0       13.263364    2.728970    0.050146
   13          6             0       11.998096    3.402046    0.091972
   14          6             0       11.050779    2.439921    0.062738
   15          6             0       11.744698    1.186263    0.006155
   16          7             0       13.098565    1.372429    0.008394
   17          6             0       11.099097   -0.029670   -0.060071
   18          6             0       11.766586   -1.234965   -0.097192
   19          6             0       11.095365   -2.500886   -0.155211
   20          6             0       12.058512   -3.447377   -0.133272
   21          6             0       13.310722   -2.752445   -0.064761
   22          7             0       13.122688   -1.398367   -0.052573
   23          6             0       14.527117   -3.396154   -0.000141
   24          6             0       15.734237   -2.733457    0.050104
   25          7             0       15.906993   -1.374362    0.019179
   26          1             0       17.110262   -4.476347    0.146929
   27          1             0       19.013685   -2.556486    0.133189
   28          1             0       18.970132    2.631540   -0.123471
   29          1             0       17.035062    4.519539   -0.093523
   30          1             0       14.461009    4.473124    0.036804
   31          1             0       11.878587    4.467379    0.134169
   32          1             0        9.982918    2.542068    0.076395
   33          1             0       10.020013   -0.038657   -0.078239
   34          1             0       10.030363   -2.621222   -0.202392
   35          1             0       11.957745   -4.515137   -0.159192
   36          1             0       14.536573   -4.475511    0.007044
   37         27             0       41.350003    0.030559   -0.008657
   38          6             0       38.864033    3.383443    0.652099
   39          6             0       37.908953    2.441920    0.479886
   40          6             0       38.595286    1.211957    0.226644
   41          6             0       37.927082    0.009044   -0.009545
   42          6             0       38.610283   -1.187642   -0.233421
   43          6             0       37.939480   -2.429935   -0.467233
   44          6             0       38.906183   -3.364061   -0.612962
   45          6             0       40.156294   -2.681753   -0.469721
   46          7             0       39.964079   -1.344175   -0.242379
   47          6             0       41.374042   -3.322040   -0.546998
   48          6             0       42.582294   -2.670978   -0.427577
   49          6             0       43.846232   -3.341352   -0.521151
   50          6             0       44.795573   -2.389841   -0.389789
   51          6             0       44.104207   -1.145861   -0.213916
   52          7             0       42.749932   -1.328252   -0.232508
   53          6             0       44.752609    0.060373   -0.058478
   54          6             0       44.088187    1.253485    0.127470
   55          6             0       44.762895    2.506637    0.302979
   56          6             0       43.801936    3.437216    0.488655
   57          6             0       42.547571    2.746035    0.421704
   58          7             0       42.732279    1.410641    0.194561
   59          6             0       41.331917    3.374721    0.579801
   60          6             0       40.122610    2.719097    0.499081
   61          7             0       39.947065    1.384027    0.244847
   62          1             0       38.749724    4.429367    0.860538
   63          1             0       36.841999    2.544792    0.517099
   64          1             0       36.873952   -2.545778   -0.507914
   65          1             0       38.805027   -4.415377   -0.800064
   66          1             0       41.380415   -4.388192   -0.715646
   67          1             0       43.963470   -4.397323   -0.670008
   68          1             0       45.863261   -2.493345   -0.406296
   69          1             0       45.831676    0.070272   -0.077357
   70          1             0       45.828499    2.629575    0.284991
   71          1             0       43.905405    4.491888    0.655783
   72          1             0       41.324887    4.437014    0.771211
   73          6             0       19.321989    0.038271   -0.012163
   74          6             0       20.539545    0.042128   -0.014839
   75          6             0       21.882168    0.044555   -0.013468
   76          6             0       23.099846    0.042952   -0.012165
   77          6             0       32.750818    0.001994   -0.017796
   78          6             0       33.968392   -0.000725   -0.019058
   79          6             0       35.311191   -0.000901   -0.018414
   80          6             0       36.528669    0.002295   -0.014888
   81         27             0       27.925274    0.023694   -0.004485
   82          6             0       25.442881   -3.378789    0.356985
   83          6             0       24.485493   -2.429409    0.253994
   84          6             0       25.169240   -1.179503    0.119948
   85          6             0       24.497519    0.037980   -0.009148
   86          6             0       25.179615    1.250215   -0.132026
   87          6             0       24.506567    2.506491   -0.260372
   88          6             0       25.472044    3.448859   -0.351608
   89          6             0       26.722763    2.757288   -0.278720
   90          7             0       26.532706    1.406776   -0.144201
   91          6             0       27.939760    3.399530   -0.339739
   92          6             0       29.151177    2.747222   -0.274430
   93          6             0       30.407806    3.428514   -0.342411
   94          6             0       31.365179    2.477915   -0.251407
   95          6             0       30.681365    1.226889   -0.128303
   96          7             0       29.329624    1.394888   -0.142414
   97          6             0       31.352925    0.007940   -0.014475
   98          6             0       30.670913   -1.204480    0.106128
   99          6             0       31.343995   -2.461169    0.230703
  100          6             0       30.378559   -3.402118    0.335752
  101          6             0       29.127834   -2.709541    0.272949
  102          7             0       29.317814   -1.359775    0.131221
  103          6             0       27.910883   -3.350372    0.348212
  104          6             0       26.699462   -2.698042    0.283358
  105          7             0       26.520946   -1.346987    0.138694
  106          1             0       25.331345   -4.439435    0.471306
  107          1             0       23.418649   -2.539036    0.265477
  108          1             0       23.440678    2.624771   -0.275504
  109          1             0       25.369613    4.511217   -0.458295
  110          1             0       27.944416    4.473786   -0.446010
  111          1             0       30.519380    4.490200   -0.446540
  112          1             0       32.432034    2.587347   -0.264800
  113          1             0       32.409874   -2.580484    0.236070
  114          1             0       30.481016   -4.464158    0.445545
  115          1             0       27.906278   -4.423830    0.462244
 --------------------------------------------------------------------
     1 basis functions        1 primitive gaussians
     1 alpha electrons        1 beta electrons

 Harmonic frequencies (cm**-1), IR intensities (km*mol⁻¹),
 Raman scattering activities (A**4/amu), Raman depolarization ratios,
 reduced masses (AMU), force constants (mDyne/A) and normal coordinates:
                      1                      2                      3
                        a                      a                      a 
 Frequencies --   -12.6916               -12.5188                -5.0983
 Red. masses --    11.2113                11.1535                18.4084
 Frc consts  --     0.0000                 0.0000                 0.0000
 IR Inten    --   219.5542                44.3201                 6.5635
 Raman Activ --     0.0000                 0.0000                 0.0000
 Depolar     --     0.0000                 0.0000                 0.0000
 Atom AN      X      Y      Z        X      Y      Z        X      Y      Z
   1  27    -0.00   0.00  -0.04     0.00   0.00   0.02    -0.00   0.02   0.15
   2   6     0.00  -0.01  -0.23    -0.00   0.00   0.12    -0.00   0.01   0.05
   3   6     0.00  -0.00  -0.12    -0.00   0.00   0.07    -0.00   0.00   0.05
   4   6    -0.00  -0.00  -0.05    -0.00   0.00   0.03    -0.00   0.01   0.06
   5   6     0.00   0.00   0.00    -0.00   0.00   0.01    -0.00   0.01   0.06
   6   6     0.00  -0.00  -0.05    -0.00   0.00   0.03     0.00   0.01   0.06
   7   6     0.00  -0.00  -0.12    -0.00   0.00   0.07     0.00   0.00   0.05
   8   6    -0.00  -0.00  -0.23    -0.00   0.00   0.12     0.00   0.01   0.04
   9   6    -0.00   0.00  -0.20    -0.00   0.00   0.10     0.00   0.01   0.05
  10   7    -0.00   0.00  -0.10    -0.00   0.00   0.05     0.00   0.01   0.06
  11   6    -0.00   0.00  -0.22    -0.00  -0.00   0.11     0.00   0.01   0.05
  12   6     0.00   0.00  -0.07    -0.00  -0.00   0.03     0.00   0.01   0.07
  13   6     0.01   0.01   0.03    -0.00  -0.00  -0.02     0.00   0.01   0.08
  14   6     0.00   0.00   0.24    -0.00  -0.00  -0.12     0.00   0.01   0.10
  15   6    -0.00  -0.00   0.24    -0.00   0.00  -0.12     0.00   0.01   0.10
  16   7    -0.00   0.00   0.06    -0.00   0.00  -0.03     0.00   0.01   0.08
  17   6    -0.01  -0.00   0.35     0.00   0.00  -0.17    -0.00   0.01   0.11
  18   6    -0.01  -0.00   0.23     0.01   0.00  -0.11    -0.00   0.01   0.10
  19   6    -0.02   0.00   0.23     0.01  -0.00  -0.11    -0.00   0.01   0.10
  20   6    -0.01   0.00   0.01     0.01  -0.00  -0.01    -0.00   0.01   0.08
  21   6    -0.00   0.00  -0.08     0.00   0.00   0.04    -0.00   0.01   0.07
  22   7    -0.01   0.00   0.05     0.00   0.00  -0.03    -0.00   0.01   0.08
  23   6     0.00  -0.00  -0.22    -0.00   0.00   0.11    -0.00   0.01   0.05
  24   6     0.00  -0.00  -0.20    -0.00   0.00   0.10    -0.00   0.01   0.05
  25   7     0.00  -0.00  -0.10    -0.00   0.00   0.05    -0.00   0.01   0.06
  26   1     0.00  -0.00  -0.09    -0.00   0.00   0.05    -0.00   0.00   0.01
  27   1     0.00  -0.00  -0.03    -0.00   0.00   0.02    -0.00   0.00   0.01
  28   1     0.00  -0.00  -0.03    -0.00   0.00   0.02     0.00   0.00   0.01
  29   1    -0.00  -0.00  -0.09    -0.00   0.00   0.05     0.00   0.00   0.01
  30   1    -0.00   0.00  -0.09    -0.00  -0.00   0.04     0.00   0.00   0.01
  31   1     0.00   0.00  -0.01    -0.00  -0.00   0.01     0.00   0.00   0.02
  32   1     0.00   0.00   0.11    -0.00  -0.00  -0.05     0.00   0.00   0.03
  33   1    -0.00  -0.00   0.14     0.00   0.00  -0.07    -0.00   0.00   0.04
  34   1    -0.01   0.00   0.10     0.00  -0.00  -0.05    -0.00   0.00   0.03
  35   1    -0.00   0.00  -0.02     0.00  -0.00   0.01    -0.00   0.00   0.02
  36   1     0.00  -0.00  -0.09    -0.00   0.00   0.04    -0.00   0.00   0.01
  37  27     0.00   0.01  -0.02     0.00   0.01  -0.04     0.00   0.02   0.15
  38   6     0.00   0.02  -0.11    -0.00   0.05  -0.22    -0.00   0.01   0.05
  39   6     0.00   0.01  -0.05    -0.00   0.03  -0.12    -0.00   0.01   0.05
  40   6     0.00   0.01  -0.02    -0.00   0.01  -0.05    -0.00   0.01   0.06
  41   6     0.00   0.00   0.01    -0.00   0.00  -0.01     0.00   0.01   0.06
  42   6    -0.00   0.01  -0.02    -0.00   0.01  -0.05     0.00   0.01   0.06
  43   6    -0.00   0.01  -0.06    -0.00   0.03  -0.13     0.00   0.01   0.05
  44   6    -0.00   0.02  -0.11    -0.00   0.04  -0.23     0.00   0.01   0.04
  45   6    -0.00   0.02  -0.10    -0.00   0.04  -0.20     0.00   0.01   0.05
  46   7    -0.00   0.01  -0.05    -0.00   0.02  -0.10     0.00   0.01   0.06
  47   6    -0.00   0.02  -0.11    -0.00   0.04  -0.22     0.00   0.01   0.05
  48   6    -0.00   0.01  -0.04    -0.00   0.01  -0.07     0.00   0.01   0.07
  49   6    -0.00  -0.00   0.01    -0.01  -0.01   0.02     0.00   0.01   0.08
  50   6    -0.00  -0.02   0.11    -0.00  -0.04   0.23     0.00   0.01   0.10
  51   6     0.00  -0.02   0.12     0.00  -0.04   0.23     0.00   0.01   0.09
  52   7     0.00  -0.00   0.03     0.00  -0.01   0.05     0.00   0.01   0.08
  53   6     0.00  -0.03   0.17     0.01  -0.06   0.35     0.00   0.00   0.10
  54   6     0.01  -0.02   0.11     0.01  -0.04   0.23     0.00   0.01   0.09
  55   6     0.01  -0.02   0.11     0.01  -0.04   0.23    -0.00   0.01   0.10
  56   6     0.01  -0.00   0.01     0.01  -0.00   0.02    -0.00   0.01   0.08
  57   6     0.00   0.01  -0.04     0.00   0.01  -0.07    -0.00   0.01   0.07
  58   7     0.00  -0.00   0.03     0.00  -0.01   0.05    -0.00   0.01   0.08
  59   6     0.00   0.02  -0.11    -0.00   0.04  -0.21    -0.00   0.01   0.05
  60   6     0.00   0.02  -0.10    -0.00   0.04  -0.19    -0.00   0.01   0.05
  61   7     0.00   0.01  -0.05    -0.00   0.02  -0.10    -0.00   0.01   0.06
  62   1     0.00   0.01  -0.04    -0.00   0.02  -0.09    -0.00   0.00   0.01
  63   1     0.00   0.00  -0.01    -0.00   0.01  -0.03    -0.00   0.00   0.01
  64   1    -0.00   0.00  -0.01    -0.00   0.01  -0.03     0.00   0.00   0.01
  65   1    -0.00   0.01  -0.04    -0.00   0.02  -0.09     0.00   0.00   0.01
  66   1    -0.00   0.01  -0.04    -0.00   0.01  -0.09     0.00   0.00   0.01
  67   1    -0.00   0.00  -0.01    -0.00   0.00  -0.01     0.00   0.00   0.02
  68   1    -0.00  -0.01   0.05    -0.00  -0.02   0.10     0.00   0.00   0.03
  69   1     0.00  -0.01   0.07     0.00  -0.02   0.14     0.00   0.00   0.03
  70   1     0.00  -0.01   0.05     0.01  -0.02   0.10    -0.00   0.00   0.03
  71   1     0.00   0.00  -0.01     0.00   0.00  -0.01    -0.00   0.00   0.02
  72   1     0.00   0.01  -0.04    -0.00   0.02  -0.09    -0.00   0.00   0.01
  73   6     0.00   0.00   0.04    -0.00   0.00  -0.01    -0.00   0.00   0.05
  74   6     0.00   0.00   0.06    -0.00   0.00  -0.02    -0.00   0.00   0.04
  75   6     0.00   0.00   0.07    -0.00  -0.00  -0.02    -0.00   0.00   0.02
  76   6     0.00   0.00   0.07    -0.00  -0.00  -0.02    -0.00  -0.00  -0.01
  77   6     0.00  -0.00   0.04    -0.00  -0.01   0.05     0.00  -0.00  -0.01
  78   6     0.00  -0.00   0.04    -0.00  -0.01   0.06     0.00   0.00   0.02
  79   6     0.00  -0.00   0.04    -0.00  -0.01   0.05     0.00   0.00   0.04
  80   6     0.00  -0.00   0.03    -0.00  -0.00   0.03     0.00   0.01   0.05
  81  27     0.00  -0.01   0.05    -0.00  -0.01   0.02     0.00  -0.03  -0.31
  82   6    -0.00  -0.00   0.02    -0.01  -0.00  -0.02     0.00  -0.02  -0.18
  83   6    -0.00  -0.00   0.04    -0.00  -0.00  -0.02     0.00  -0.01  -0.11
  84   6    -0.00  -0.00   0.04    -0.00  -0.00  -0.01     0.00  -0.01  -0.09
  85   6     0.00   0.00   0.05    -0.00  -0.00  -0.01    -0.00  -0.01  -0.05
  86   6     0.00  -0.00   0.04     0.00  -0.00  -0.01    -0.00  -0.01  -0.09
  87   6     0.00  -0.00   0.04     0.00  -0.00  -0.02    -0.00  -0.01  -0.11
  88   6     0.00  -0.00   0.01     0.00  -0.00  -0.02    -0.00  -0.02  -0.18
  89   6     0.00  -0.00   0.01     0.00  -0.01  -0.01    -0.00  -0.02  -0.19
  90   7     0.00  -0.00   0.03     0.00  -0.01  -0.01    -0.00  -0.02  -0.15
  91   6     0.00  -0.01  -0.01     0.00  -0.01  -0.00    -0.00  -0.02  -0.23
  92   6     0.00  -0.01  -0.00     0.00  -0.01   0.01    -0.00  -0.02  -0.19
  93   6     0.00  -0.01  -0.00     0.00  -0.01   0.02    -0.00  -0.02  -0.18
  94   6     0.00  -0.01   0.02     0.00  -0.01   0.04    -0.00  -0.01  -0.11
  95   6     0.00  -0.00   0.02     0.00  -0.01   0.03     0.00  -0.01  -0.09
  96   7     0.00  -0.00   0.02     0.00  -0.01   0.02    -0.00  -0.02  -0.15
  97   6     0.00  -0.00   0.03    -0.00  -0.01   0.04     0.00  -0.01  -0.05
  98   6    -0.00  -0.00   0.03    -0.00  -0.01   0.03     0.00  -0.01  -0.09
  99   6    -0.00  -0.00   0.02    -0.00  -0.01   0.04     0.00  -0.01  -0.11
 100   6    -0.00  -0.01   0.00    -0.01  -0.01   0.02     0.00  -0.02  -0.18
 101   6    -0.00  -0.01   0.00    -0.00  -0.01   0.01     0.00  -0.02  -0.19
 102   7    -0.00  -0.00   0.02    -0.00  -0.01   0.02     0.00  -0.02  -0.15
 103   6    -0.00  -0.01  -0.00    -0.01  -0.01  -0.00     0.00  -0.02  -0.23
 104   6    -0.00  -0.00   0.01    -0.00  -0.01  -0.01     0.00  -0.02  -0.19
 105   7    -0.00  -0.00   0.03    -0.00  -0.01  -0.00     0.00  -0.02  -0.15
 106   1    -0.00  -0.00   0.00    -0.00  -0.00  -0.01     0.00  -0.01  -0.06
 107   1    -0.00   0.00   0.02    -0.00  -0.00  -0.01     0.00  -0.00  -0.02
 108   1     0.00   0.00   0.01     0.00  -0.00  -0.01    -0.00  -0.00  -0.02
 109   1     0.00  -0.00   0.00     0.00  -0.00  -0.01    -0.00  -0.01  -0.06
 110   1     0.00  -0.00  -0.01     0.00  -0.00  -0.00    -0.00  -0.01  -0.08
 111   1     0.00  -0.00  -0.00     0.00  -0.00   0.01    -0.00  -0.01  -0.06
 112   1     0.00  -0.00   0.01     0.00  -0.00   0.01    -0.00  -0.00  -0.02
 113   1    -0.00  -0.00   0.01    -0.00  -0.00   0.01     0.00  -0.00  -0.02
 114   1    -0.00  -0.00  -0.00    -0.00  -0.00   0.01     0.00  -0.01  -0.06
 115   1    -0.00  -0.00  -0.00    -0.00  -0.00  -0.00     0.00  -0.01  -0.08
                      4                      5                      6
                        a                      a                      a 
 Frequencies --     2.7332                 3.8297                 4.3730
 Red. masses --    11.2297                16.2803                11.2316
 Frc consts  --     0.0000                 0.0000                 0.0000
 IR Inten    --   155.0253                 6.0959                26.0807
 Raman Activ --     0.0000                 0.0000                 0.0000
 Depolar     --     0.0000                 0.0000                 0.0000
 Atom AN      X      Y      Z        X      Y      Z        X      Y      Z
   1  27     0.00  -0.00   0.00    -0.00   0.14  -0.01    -0.00   0.00  -0.00
   2   6    -0.00  -0.01  -0.19    -0.08   0.00  -0.00    -0.00   0.00   0.11
   3   6    -0.00  -0.01  -0.13    -0.06  -0.02  -0.00    -0.00   0.00   0.08
   4   6     0.00  -0.00  -0.06    -0.03  -0.00  -0.00    -0.00   0.00   0.04
   5   6    -0.00  -0.00   0.00     0.00  -0.02   0.00     0.00   0.00  -0.00
   6   6     0.00   0.00   0.07     0.03  -0.00   0.00     0.00  -0.00  -0.04
   7   6    -0.00   0.00   0.14     0.06  -0.02   0.00     0.00  -0.00  -0.08
   8   6    -0.00   0.00   0.20     0.08   0.00   0.00     0.00  -0.00  -0.11
   9   6    -0.00   0.00   0.16     0.07   0.03  -0.00     0.00   0.00  -0.09
  10   7     0.00   0.00   0.09     0.04   0.03  -0.00     0.00   0.00  -0.05
  11   6    -0.00  -0.00   0.20     0.08   0.06  -0.00     0.00   0.00  -0.12
  12   6    -0.00  -0.00   0.16     0.07   0.09  -0.01     0.00   0.00  -0.10
  13   6    -0.00  -0.01   0.19     0.08   0.12  -0.01     0.00   0.01  -0.12
  14   6    -0.00  -0.00   0.14     0.06   0.15  -0.01     0.00   0.01  -0.09
  15   6    -0.00  -0.00   0.06     0.03   0.13  -0.01     0.00   0.00  -0.04
  16   7    -0.00  -0.00   0.08     0.04   0.10  -0.01     0.00   0.00  -0.05
  17   6     0.00   0.00  -0.01    -0.00   0.15  -0.01    -0.00   0.00   0.00
  18   6     0.00   0.00  -0.07    -0.03   0.13  -0.01    -0.00   0.00   0.05
  19   6     0.00   0.01  -0.15    -0.06   0.15  -0.02    -0.00  -0.00   0.10
  20   6     0.00   0.01  -0.20    -0.08   0.12  -0.01    -0.00  -0.00   0.13
  21   6     0.00   0.00  -0.16    -0.07   0.09  -0.01    -0.00   0.00   0.10
  22   7     0.00   0.00  -0.09    -0.04   0.10  -0.01    -0.00   0.00   0.05
  23   6    -0.00  -0.00  -0.19    -0.08   0.06  -0.01    -0.00   0.00   0.12
  24   6    -0.00  -0.00  -0.15    -0.07   0.03  -0.01    -0.00   0.00   0.09
  25   7     0.00  -0.00  -0.08    -0.04   0.03  -0.00    -0.00   0.00   0.05
  26   1    -0.00  -0.00  -0.07    -0.03  -0.00  -0.00    -0.00   0.00   0.04
  27   1    -0.00  -0.00  -0.04    -0.02  -0.01   0.00    -0.00   0.00   0.02
  28   1    -0.00   0.00   0.04     0.02  -0.01   0.00     0.00  -0.00  -0.02
  29   1    -0.00   0.00   0.07     0.03   0.00   0.00     0.00  -0.00  -0.04
  30   1     0.00  -0.00   0.07     0.03   0.02  -0.00     0.00   0.00  -0.05
  31   1    -0.00  -0.00   0.07     0.03   0.04  -0.00     0.00   0.00  -0.05
  32   1    -0.00  -0.00   0.04     0.02   0.05  -0.00     0.00   0.00  -0.03
  33   1     0.00   0.00  -0.00    -0.00   0.05  -0.00    -0.00   0.00   0.00
  34   1     0.00   0.00  -0.05    -0.02   0.05  -0.01    -0.00  -0.00   0.03
  35   1     0.00   0.00  -0.07    -0.03   0.04  -0.00    -0.00  -0.00   0.05
  36   1     0.00  -0.00  -0.07    -0.03   0.02  -0.00    -0.00   0.00   0.04
  37  27     0.00  -0.00   0.00    -0.00   0.14  -0.02    -0.00   0.00  -0.00
  38   6     0.00   0.04  -0.19    -0.08   0.00  -0.00    -0.00   0.02  -0.10
  39   6     0.00   0.03  -0.14    -0.06  -0.02  -0.00    -0.00   0.01  -0.07
  40   6     0.00   0.01  -0.07    -0.03  -0.00  -0.00    -0.00   0.01  -0.04
  41   6    -0.00   0.00  -0.00     0.00  -0.02  -0.00    -0.00   0.00  -0.00
  42   6    -0.00  -0.01   0.07     0.03  -0.00  -0.00     0.00  -0.01   0.03
  43   6    -0.00  -0.02   0.14     0.06  -0.02  -0.00     0.00  -0.01   0.07
  44   6    -0.00  -0.03   0.19     0.08   0.01  -0.01     0.00  -0.02   0.10
  45   6    -0.00  -0.03   0.16     0.06   0.04  -0.01     0.00  -0.01   0.08
  46   7    -0.00  -0.01   0.08     0.03   0.03  -0.01     0.00  -0.01   0.04
  47   6    -0.00  -0.03   0.19     0.08   0.06  -0.01     0.00  -0.01   0.11
  48   6    -0.00  -0.02   0.16     0.06   0.09  -0.01     0.00  -0.01   0.09
  49   6    -0.00  -0.03   0.20     0.08   0.12  -0.01     0.00  -0.01   0.12
  50   6    -0.00  -0.02   0.15     0.06   0.15  -0.01     0.00  -0.01   0.09
  51   6    -0.00  -0.01   0.07     0.03   0.13  -0.01     0.00  -0.00   0.04
  52   7    -0.00  -0.01   0.09     0.03   0.10  -0.01     0.00  -0.01   0.05
  53   6    -0.00  -0.00   0.00    -0.00   0.14  -0.01    -0.00   0.00   0.00
  54   6     0.00   0.01  -0.07    -0.03   0.13  -0.01    -0.00   0.01  -0.04
  55   6     0.00   0.02  -0.14    -0.06   0.14  -0.01    -0.00   0.01  -0.08
  56   6     0.00   0.03  -0.20    -0.08   0.12  -0.01    -0.00   0.02  -0.11
  57   6     0.00   0.02  -0.16    -0.06   0.09  -0.01    -0.00   0.02  -0.09
  58   7     0.00   0.01  -0.09    -0.04   0.10  -0.01    -0.00   0.01  -0.05
  59   6     0.00   0.03  -0.19    -0.08   0.06  -0.01    -0.00   0.02  -0.11
  60   6     0.00   0.03  -0.16    -0.06   0.03  -0.01    -0.00   0.02  -0.08
  61   7     0.00   0.02  -0.08    -0.03   0.03  -0.01    -0.00   0.01  -0.05
  62   1     0.00   0.01  -0.07    -0.03   0.00  -0.00    -0.00   0.01  -0.04
  63   1     0.00   0.01  -0.04    -0.02  -0.01   0.00    -0.00   0.00  -0.02
  64   1    -0.00  -0.01   0.04     0.02  -0.01   0.00     0.00  -0.00   0.02
  65   1    -0.00  -0.01   0.07     0.03   0.00  -0.00     0.00  -0.01   0.04
  66   1    -0.00  -0.01   0.07     0.03   0.02  -0.00     0.00  -0.01   0.04
  67   1    -0.00  -0.01   0.08     0.03   0.04  -0.00     0.00  -0.01   0.04
  68   1    -0.00  -0.01   0.04     0.02   0.05  -0.00     0.00  -0.00   0.03
  69   1     0.00  -0.00   0.00    -0.00   0.05  -0.00    -0.00   0.00   0.00
  70   1     0.00   0.00  -0.04    -0.02   0.05  -0.00    -0.00   0.00  -0.03
  71   1     0.00   0.01  -0.08    -0.03   0.04  -0.00    -0.00   0.01  -0.04
  72   1     0.00   0.01  -0.07    -0.03   0.02  -0.00    -0.00   0.01  -0.04
  73   6    -0.00  -0.00   0.00     0.00  -0.05   0.00    -0.00  -0.00  -0.00
  74   6    -0.00  -0.00   0.00     0.00  -0.08   0.01    -0.00  -0.00  -0.00
  75   6    -0.00  -0.00   0.00     0.00  -0.09   0.01    -0.00  -0.00  -0.00
  76   6    -0.00   0.00   0.00     0.00  -0.10   0.01    -0.00  -0.00  -0.00
  77   6    -0.00   0.00  -0.00     0.00  -0.10   0.01     0.00  -0.00  -0.00
  78   6    -0.00   0.00  -0.00     0.00  -0.09   0.01     0.00  -0.00  -0.00
  79   6    -0.00   0.00  -0.00     0.00  -0.07   0.00     0.00  -0.00  -0.00
  80   6    -0.00   0.00  -0.00     0.00  -0.05   0.00     0.00  -0.00  -0.00
  81  27    -0.00   0.00  -0.00     0.00  -0.24   0.03     0.00  -0.01   0.00
  82   6     0.00  -0.00  -0.02     0.00  -0.11   0.02    -0.00  -0.03  -0.22
  83   6     0.00  -0.00  -0.01     0.00  -0.11   0.02    -0.00  -0.02  -0.16
  84   6     0.00  -0.00  -0.01     0.00  -0.11   0.01    -0.00  -0.01  -0.08
  85   6    -0.00   0.00   0.00     0.00  -0.11   0.01     0.00  -0.00   0.00
  86   6    -0.00   0.00   0.01    -0.00  -0.11   0.01     0.00   0.01   0.08
  87   6    -0.00   0.00   0.01     0.00  -0.11   0.01     0.00   0.01   0.16
  88   6    -0.00   0.00   0.02     0.00  -0.11   0.01     0.00   0.02   0.23
  89   6    -0.00   0.00   0.01     0.00  -0.11   0.01     0.00   0.02   0.18
  90   7    -0.00   0.00   0.00     0.00  -0.11   0.01     0.00   0.01   0.10
  91   6    -0.00   0.00   0.00     0.00  -0.11   0.01     0.00   0.02   0.23
  92   6    -0.00   0.00  -0.00     0.00  -0.11   0.01     0.00   0.02   0.18
  93   6    -0.00   0.00  -0.01     0.00  -0.11   0.01     0.00   0.02   0.23
  94   6    -0.00   0.00  -0.01     0.00  -0.11   0.01     0.00   0.01   0.16
  95   6    -0.00   0.00  -0.00     0.00  -0.11   0.01     0.00   0.01   0.08
  96   7    -0.00   0.00  -0.00     0.00  -0.11   0.01     0.00   0.01   0.10
  97   6     0.00   0.00  -0.00     0.00  -0.11   0.01     0.00  -0.00   0.00
  98   6     0.00   0.00   0.00     0.00  -0.11   0.01     0.00  -0.01  -0.08
  99   6     0.00   0.00   0.01     0.00  -0.11   0.01     0.00  -0.02  -0.16
 100   6     0.00   0.00   0.00     0.00  -0.11   0.02    -0.00  -0.03  -0.23
 101   6     0.00   0.00  -0.00     0.00  -0.11   0.02     0.00  -0.02  -0.18
 102   7     0.00   0.00  -0.00     0.00  -0.11   0.01     0.00  -0.01  -0.10
 103   6     0.00  -0.00  -0.01     0.00  -0.10   0.02    -0.00  -0.03  -0.22
 104   6     0.00  -0.00  -0.01     0.00  -0.11   0.02    -0.00  -0.02  -0.18
 105   7     0.00  -0.00  -0.01     0.00  -0.11   0.02    -0.00  -0.01  -0.10
 106   1     0.00  -0.00  -0.01     0.00  -0.03   0.01    -0.00  -0.01  -0.09
 107   1     0.00  -0.00  -0.01     0.00  -0.03   0.00    -0.00  -0.01  -0.05
 108   1    -0.00   0.00   0.01     0.00  -0.03   0.00     0.00   0.00   0.05
 109   1    -0.00   0.00   0.01     0.00  -0.03   0.00     0.00   0.01   0.09
 110   1    -0.00   0.00   0.00     0.00  -0.03   0.00     0.00   0.01   0.09
 111   1    -0.00   0.00  -0.00     0.00  -0.03   0.00     0.00   0.01   0.09
 112   1    -0.00  -0.00  -0.00     0.00  -0.03   0.00     0.00   0.00   0.05
 113   1     0.00   0.00   0.00     0.00  -0.03   0.00     0.00  -0.01  -0.05
 114   1     0.00   0.00   0.00     0.00  -0.03   0.01    -0.00  -0.01  -0.09
 115   1     0.00  -0.00  -0.00     0.00  -0.03   0.01    -0.00  -0.01  -0.08
                      7                      8                      9
                        a                      a                      a 
 Frequencies --     9.4826                11.4474                12.5348
 Red. masses --    11.4481                11.8816                11.6672
 Frc consts  --     0.0000                 0.0000                 0.0000
 IR Inten    --    16.2695                 1.1469                 6.0141
 Raman Activ --     0.0000                 0.0000                 0.0000
 Depolar     --     0.0000                 0.0000                 0.0000
 Atom AN      X      Y      Z        X      Y      Z        X      Y      Z
   1  27    -0.00  -0.01  -0.01     0.00  -0.01   0.05    -0.00  -0.00  -0.03
   2   6    -0.10  -0.08   0.00    -0.02  -0.02  -0.02    -0.01  -0.01   0.03
   3   6    -0.07  -0.10   0.01    -0.02  -0.03  -0.09    -0.01  -0.01   0.11
   4   6    -0.04  -0.08   0.01    -0.01  -0.03  -0.09    -0.00  -0.01   0.10
   5   6    -0.00  -0.10   0.01     0.00  -0.03  -0.13     0.00  -0.01   0.14
   6   6     0.04  -0.08   0.01     0.01  -0.03  -0.09     0.00  -0.01   0.10
   7   6     0.07  -0.10   0.01     0.02  -0.03  -0.09     0.01  -0.01   0.10
   8   6     0.10  -0.07   0.00     0.03  -0.02  -0.01     0.01  -0.01   0.02
   9   6     0.08  -0.04  -0.00     0.02  -0.01   0.03     0.00  -0.00  -0.02
  10   7     0.04  -0.05  -0.00     0.01  -0.02  -0.01     0.00  -0.00   0.03
  11   6     0.10  -0.00  -0.01     0.03  -0.00   0.10     0.00   0.00  -0.09
  12   6     0.08   0.03  -0.01     0.03   0.01   0.10     0.00   0.00  -0.09
  13   6     0.10   0.07  -0.02     0.03   0.02   0.12     0.00   0.01  -0.11
  14   6     0.07   0.10  -0.02     0.02   0.03   0.09     0.00   0.01  -0.08
  15   6     0.03   0.08  -0.01     0.01   0.02   0.06     0.00   0.00  -0.05
  16   7     0.04   0.04  -0.01     0.01   0.01   0.07     0.00   0.00  -0.06
  17   6    -0.00   0.10  -0.01     0.00   0.03   0.05    -0.00   0.00  -0.04
  18   6    -0.04   0.08  -0.01    -0.01   0.02   0.06    -0.00   0.00  -0.05
  19   6    -0.07   0.10  -0.01    -0.02   0.03   0.10    -0.00   0.00  -0.08
  20   6    -0.10   0.07  -0.01    -0.03   0.02   0.13    -0.00   0.00  -0.11
  21   6    -0.08   0.03  -0.01    -0.02   0.01   0.10    -0.00   0.00  -0.09
  22   7    -0.05   0.04  -0.01    -0.01   0.01   0.07    -0.00   0.00  -0.06
  23   6    -0.10  -0.00  -0.01    -0.03  -0.00   0.09    -0.00  -0.00  -0.08
  24   6    -0.08  -0.04  -0.00    -0.02  -0.01   0.03    -0.01  -0.00  -0.02
  25   7    -0.05  -0.05   0.00    -0.01  -0.02  -0.02    -0.00  -0.00   0.03
  26   1    -0.04  -0.02   0.00    -0.01  -0.01   0.00    -0.00  -0.00   0.00
  27   1    -0.02  -0.04   0.00    -0.00  -0.01  -0.04    -0.00  -0.00   0.05
  28   1     0.02  -0.04   0.00     0.01  -0.01  -0.04     0.00  -0.00   0.04
  29   1     0.04  -0.02  -0.00     0.01  -0.01   0.00     0.00  -0.00  -0.00
  30   1     0.04  -0.00  -0.00     0.01  -0.00   0.04     0.00   0.00  -0.03
  31   1     0.04   0.02  -0.01     0.01   0.00   0.05     0.00   0.00  -0.04
  32   1     0.02   0.04  -0.01     0.01   0.01   0.03     0.00   0.00  -0.02
  33   1    -0.00   0.04  -0.00     0.00   0.01   0.01    -0.00   0.00  -0.01
  34   1    -0.02   0.04  -0.00    -0.01   0.01   0.03    -0.00   0.00  -0.02
  35   1    -0.04   0.02  -0.00    -0.01   0.01   0.05    -0.00   0.00  -0.04
  36   1    -0.04  -0.00  -0.00    -0.01  -0.00   0.04    -0.00  -0.00  -0.03
  37  27     0.00   0.01  -0.00    -0.00  -0.01   0.06    -0.00  -0.01   0.02
  38   6     0.11   0.08   0.02    -0.02  -0.01  -0.02    -0.01  -0.01  -0.02
  39   6     0.08   0.11   0.02    -0.02  -0.00  -0.11    -0.01   0.00  -0.09
  40   6     0.04   0.09   0.02    -0.01   0.00  -0.10    -0.00   0.00  -0.08
  41   6     0.00   0.11   0.03    -0.00   0.00  -0.15    -0.00   0.01  -0.12
  42   6    -0.04   0.09   0.02     0.01   0.00  -0.10     0.00   0.00  -0.08
  43   6    -0.08   0.11   0.02     0.02  -0.00  -0.11     0.01   0.00  -0.09
  44   6    -0.11   0.08   0.01     0.02  -0.01  -0.02     0.01  -0.01  -0.02
  45   6    -0.08   0.04   0.00     0.01  -0.01   0.03     0.01  -0.01   0.01
  46   7    -0.05   0.05   0.01     0.01  -0.01  -0.02     0.00  -0.00  -0.02
  47   6    -0.10   0.00  -0.01     0.02  -0.02   0.10     0.01  -0.01   0.07
  48   6    -0.08  -0.04  -0.01     0.01  -0.01   0.11     0.01  -0.01   0.07
  49   6    -0.10  -0.07  -0.02     0.02  -0.01   0.14     0.01  -0.01   0.09
  50   6    -0.07  -0.10  -0.03     0.01   0.00   0.11     0.01  -0.00   0.07
  51   6    -0.04  -0.08  -0.02     0.00   0.00   0.07     0.00  -0.00   0.04
  52   7    -0.04  -0.04  -0.01     0.01  -0.01   0.08     0.00  -0.01   0.04
  53   6     0.00  -0.10  -0.02    -0.00   0.01   0.06    -0.00   0.00   0.03
  54   6     0.04  -0.08  -0.02    -0.01   0.00   0.07    -0.00  -0.00   0.04
  55   6     0.08  -0.10  -0.02    -0.01   0.00   0.11    -0.01  -0.00   0.07
  56   6     0.11  -0.07  -0.02    -0.02  -0.01   0.14    -0.01  -0.01   0.09
  57   6     0.09  -0.03  -0.01    -0.02  -0.01   0.11    -0.01  -0.01   0.07
  58   7     0.05  -0.04  -0.01    -0.01  -0.01   0.08    -0.00  -0.01   0.05
  59   6     0.11   0.00  -0.00    -0.02  -0.02   0.10    -0.01  -0.01   0.07
  60   6     0.09   0.04   0.01    -0.02  -0.01   0.03    -0.01  -0.01   0.01
  61   7     0.05   0.05   0.01    -0.01  -0.01  -0.02    -0.01  -0.00  -0.02
  62   1     0.04   0.02   0.00    -0.01  -0.01   0.00    -0.00  -0.00  -0.00
  63   1     0.02   0.04   0.01    -0.01   0.00  -0.05    -0.00   0.00  -0.04
  64   1    -0.02   0.04   0.01     0.00   0.00  -0.05     0.00   0.00  -0.04
  65   1    -0.04   0.02   0.00     0.01  -0.00   0.00     0.00  -0.00  -0.00
  66   1    -0.04   0.00  -0.00     0.01  -0.01   0.04     0.00  -0.00   0.03
  67   1    -0.04  -0.02  -0.01     0.01  -0.00   0.05     0.00  -0.00   0.03
  68   1    -0.02  -0.04  -0.01     0.00   0.00   0.03     0.00  -0.00   0.02
  69   1     0.00  -0.04  -0.01    -0.00   0.00   0.02    -0.00   0.00   0.01
  70   1     0.02  -0.04  -0.01    -0.00   0.00   0.03    -0.00  -0.00   0.02
  71   1     0.04  -0.02  -0.01    -0.01  -0.00   0.05    -0.00  -0.00   0.03
  72   1     0.04   0.00  -0.00    -0.01  -0.01   0.04    -0.00  -0.01   0.03
  73   6    -0.00  -0.14   0.01     0.00  -0.04  -0.19     0.00  -0.01   0.20
  74   6    -0.00  -0.15   0.02     0.00  -0.05  -0.21     0.00  -0.01   0.23
  75   6    -0.00  -0.15   0.02     0.00  -0.04  -0.21     0.00  -0.01   0.24
  76   6    -0.00  -0.13   0.01     0.00  -0.03  -0.19     0.00  -0.00   0.22
  77   6     0.00   0.14   0.04    -0.00   0.02  -0.22     0.00   0.01  -0.19
  78   6     0.00   0.16   0.04    -0.00   0.01  -0.24     0.00   0.02  -0.20
  79   6     0.00   0.16   0.04    -0.00   0.01  -0.24     0.00   0.01  -0.19
  80   6     0.00   0.14   0.04    -0.00   0.01  -0.21     0.00   0.01  -0.16
  81  27    -0.00  -0.00   0.00     0.00   0.03  -0.02     0.00   0.01   0.00
  82   6     0.10  -0.07  -0.02     0.02   0.01   0.07     0.02   0.00   0.13
  83   6     0.07  -0.10  -0.00     0.01  -0.01  -0.04     0.02   0.00   0.18
  84   6     0.03  -0.08   0.00     0.01  -0.01  -0.08     0.01   0.00   0.14
  85   6    -0.00  -0.10   0.01     0.00  -0.02  -0.13     0.00   0.00   0.18
  86   6    -0.04  -0.08   0.00    -0.01  -0.01  -0.08    -0.01   0.00   0.14
  87   6    -0.07  -0.10  -0.00    -0.01  -0.01  -0.04    -0.02   0.00   0.18
  88   6    -0.10  -0.07  -0.02    -0.02   0.00   0.07    -0.02   0.00   0.12
  89   6    -0.08  -0.04  -0.01    -0.02   0.01   0.09    -0.02   0.00   0.06
  90   7    -0.04  -0.04  -0.00    -0.01   0.00  -0.00    -0.01   0.00   0.08
  91   6    -0.10  -0.00  -0.02    -0.02   0.03   0.14    -0.02   0.00  -0.01
  92   6    -0.08   0.03  -0.01    -0.02   0.03   0.08    -0.02   0.00  -0.07
  93   6    -0.10   0.07   0.00    -0.02   0.03   0.05    -0.02   0.01  -0.14
  94   6    -0.07   0.10   0.02    -0.01   0.03  -0.07    -0.01   0.01  -0.17
  95   6    -0.03   0.08   0.02    -0.01   0.02  -0.10    -0.01   0.01  -0.13
  96   7    -0.04   0.04   0.01    -0.01   0.02  -0.01    -0.01   0.01  -0.08
  97   6     0.00   0.10   0.03    -0.00   0.02  -0.16     0.00   0.01  -0.15
  98   6     0.04   0.08   0.02     0.01   0.02  -0.09     0.01   0.01  -0.13
  99   6     0.07   0.10   0.02     0.01   0.03  -0.06     0.02   0.01  -0.17
 100   6     0.10   0.07   0.00     0.02   0.03   0.06     0.02   0.01  -0.14
 101   6     0.08   0.03  -0.01     0.02   0.03   0.08     0.02   0.00  -0.07
 102   7     0.04   0.04   0.01     0.01   0.02  -0.01     0.01   0.01  -0.08
 103   6     0.10  -0.00  -0.02     0.02   0.03   0.15     0.02   0.00  -0.01
 104   6     0.08  -0.04  -0.01     0.02   0.01   0.09     0.02   0.00   0.06
 105   7     0.04  -0.05  -0.00     0.01   0.00  -0.00     0.01   0.00   0.08
 106   1     0.04  -0.02  -0.01     0.01   0.00   0.04     0.01   0.00   0.04
 107   1     0.02  -0.04  -0.00     0.00  -0.01  -0.03     0.00   0.00   0.07
 108   1    -0.02  -0.04  -0.00    -0.00  -0.01  -0.03    -0.00   0.00   0.07
 109   1    -0.04  -0.02  -0.01    -0.01   0.00   0.04    -0.01   0.00   0.04
 110   1    -0.04  -0.00  -0.01    -0.01   0.01   0.06    -0.01   0.00  -0.01
 111   1    -0.04   0.02  -0.00    -0.01   0.01   0.03    -0.01   0.00  -0.04
 112   1    -0.02   0.04   0.01    -0.00   0.01  -0.04    -0.00   0.00  -0.06
 113   1     0.02   0.04   0.01     0.00   0.01  -0.03     0.00   0.00  -0.06
 114   1     0.04   0.02  -0.00     0.01   0.01   0.03     0.01   0.00  -0.04
 115   1     0.04  -0.00  -0.01     0.01   0.01   0.06     0.01   0.00  -0.01
                     10                     11                     12
                        a                      a                      a 
 Frequencies --    20.8424                23.4693                23.9262
 Red. masses --    10.9483                10.9585                10.9600
 Frc consts  --     0.0000                 0.0000                 0.0000
 IR Inten    --    62.0210                 0.5219                82.4382
 Raman Activ --     0.0000                 0.0000                 0.0000
 Depolar     --     0.0000                 0.0000                 0.0000
 Atom AN      X      Y      Z        X      Y      Z        X      Y      Z
   1  27    -0.00   0.00  -0.00     0.00  -0.00  -0.00     0.01   0.00   0.00
   2   6     0.00  -0.00  -0.03     0.00  -0.00  -0.03    -0.01   0.01   0.30
   3   6     0.00  -0.00  -0.03     0.00  -0.00  -0.03    -0.01   0.01   0.30
   4   6    -0.00   0.00  -0.02     0.00  -0.00  -0.02    -0.00   0.01   0.14
   5   6    -0.00   0.00  -0.00     0.00  -0.00   0.00    -0.00   0.00  -0.00
   6   6    -0.00   0.00   0.02     0.00  -0.00   0.02    -0.00  -0.00  -0.14
   7   6    -0.00   0.00   0.03     0.00  -0.00   0.03    -0.01  -0.01  -0.30
   8   6    -0.00   0.00   0.03     0.00  -0.00   0.03    -0.01  -0.01  -0.30
   9   6    -0.00   0.00   0.01     0.00  -0.00   0.02    -0.00  -0.00  -0.14
  10   7    -0.00   0.00   0.01     0.00  -0.00   0.01    -0.00  -0.00  -0.08
  11   6    -0.00   0.00  -0.01     0.00  -0.00   0.00     0.00  -0.00  -0.00
  12   6    -0.00   0.00  -0.02     0.00   0.00  -0.02     0.01  -0.01   0.14
  13   6    -0.00   0.00  -0.04     0.00   0.00  -0.03     0.01  -0.01   0.29
  14   6    -0.00   0.00  -0.04     0.00   0.00  -0.03     0.01  -0.01   0.29
  15   6    -0.00   0.00  -0.02     0.00   0.00  -0.02     0.01  -0.01   0.14
  16   7    -0.00   0.00  -0.01     0.00   0.00  -0.01     0.01  -0.00   0.08
  17   6    -0.00  -0.00   0.00     0.00   0.00  -0.00     0.01   0.00  -0.00
  18   6    -0.00  -0.00   0.02    -0.00   0.00   0.01     0.01   0.01  -0.14
  19   6    -0.00  -0.00   0.04    -0.00   0.00   0.03     0.02   0.01  -0.29
  20   6    -0.00  -0.00   0.04    -0.00  -0.00   0.03     0.02   0.01  -0.29
  21   6    -0.00  -0.00   0.02    -0.00  -0.00   0.02     0.01   0.00  -0.14
  22   7    -0.00  -0.00   0.01    -0.00  -0.00   0.01     0.01   0.00  -0.08
  23   6    -0.00  -0.00   0.01    -0.00  -0.00  -0.00     0.00   0.00   0.00
  24   6     0.00  -0.00  -0.01    -0.00  -0.00  -0.02    -0.00   0.01   0.14
  25   7    -0.00  -0.00  -0.01     0.00  -0.00  -0.01     0.00   0.01   0.08
  26   1     0.00  -0.00  -0.01    -0.00  -0.00  -0.01    -0.00   0.00   0.11
  27   1     0.00  -0.00  -0.01     0.00  -0.00  -0.01    -0.00   0.00   0.11
  28   1    -0.00   0.00   0.01     0.00  -0.00   0.01    -0.00  -0.00  -0.11
  29   1    -0.00   0.00   0.01     0.00  -0.00   0.01    -0.00  -0.00  -0.11
  30   1    -0.00   0.00  -0.00     0.00  -0.00   0.00     0.00  -0.00  -0.00
  31   1    -0.00   0.00  -0.02     0.00   0.00  -0.01     0.00  -0.00   0.11
  32   1    -0.00   0.00  -0.01     0.00   0.00  -0.01     0.00  -0.00   0.11
  33   1    -0.00  -0.00   0.00     0.00   0.00  -0.00     0.00   0.00  -0.00
  34   1    -0.00  -0.00   0.01    -0.00   0.00   0.01     0.01   0.00  -0.11
  35   1    -0.00  -0.00   0.02    -0.00  -0.00   0.01     0.01   0.00  -0.11
  36   1    -0.00  -0.00   0.00    -0.00  -0.00  -0.00     0.00   0.00   0.00
  37  27     0.00   0.00  -0.00    -0.01  -0.00   0.00    -0.00   0.00  -0.00
  38   6     0.00   0.01  -0.03     0.00  -0.06   0.30    -0.00  -0.00   0.03
  39   6     0.00   0.01  -0.03     0.00  -0.06   0.30    -0.00  -0.00   0.03
  40   6     0.00   0.00  -0.02     0.00  -0.03   0.14    -0.00  -0.00   0.01
  41   6     0.00   0.00  -0.00     0.00  -0.00   0.00    -0.00   0.00  -0.00
  42   6     0.00  -0.00   0.02     0.00   0.02  -0.14    -0.00   0.00  -0.01
  43   6     0.00  -0.01   0.03     0.00   0.05  -0.29    -0.00   0.01  -0.03
  44   6     0.00  -0.01   0.03     0.00   0.05  -0.29    -0.00   0.01  -0.03
  45   6     0.00  -0.00   0.01     0.00   0.02  -0.14    -0.00   0.00  -0.01
  46   7     0.00  -0.00   0.01     0.00   0.01  -0.08    -0.00   0.00  -0.01
  47   6     0.00   0.00  -0.01    -0.00   0.00  -0.00    -0.00   0.00   0.00
  48   6     0.00   0.00  -0.02    -0.00  -0.02   0.14    -0.00  -0.00   0.01
  49   6     0.00   0.01  -0.04    -0.00  -0.04   0.28    -0.00  -0.00   0.03
  50   6     0.00   0.01  -0.04    -0.00  -0.04   0.28    -0.00  -0.00   0.03
  51   6     0.00   0.00  -0.02    -0.00  -0.02   0.13    -0.00  -0.00   0.01
  52   7     0.00   0.00  -0.01    -0.00  -0.01   0.08    -0.00  -0.00   0.01
  53   6     0.00   0.00   0.00    -0.00   0.00  -0.00    -0.00  -0.00  -0.00
  54   6     0.00  -0.00   0.02    -0.01   0.02  -0.14    -0.00   0.00  -0.01
  55   6     0.00  -0.01   0.04    -0.01   0.04  -0.29    -0.00   0.00  -0.03
  56   6     0.00  -0.01   0.04    -0.01   0.04  -0.29    -0.00   0.00  -0.03
  57   6     0.00  -0.00   0.02    -0.01   0.02  -0.14    -0.00   0.00  -0.01
  58   7     0.00  -0.00   0.01    -0.01   0.01  -0.08    -0.00   0.00  -0.01
  59   6     0.00  -0.00   0.01    -0.00  -0.00   0.00    -0.00  -0.00   0.00
  60   6     0.00   0.00  -0.01     0.00  -0.03   0.14    -0.00  -0.00   0.01
  61   7     0.00   0.00  -0.01     0.00  -0.02   0.08    -0.00  -0.00   0.01
  62   1     0.00   0.00  -0.01     0.00  -0.02   0.11     0.00  -0.00   0.01
  63   1     0.00   0.00  -0.01     0.00  -0.02   0.11    -0.00  -0.00   0.01
  64   1     0.00  -0.00   0.01     0.00   0.02  -0.11    -0.00   0.00  -0.01
  65   1     0.00  -0.00   0.01     0.00   0.02  -0.11    -0.00   0.00  -0.01
  66   1     0.00   0.00  -0.00    -0.00   0.00  -0.00    -0.00   0.00   0.00
  67   1     0.00   0.00  -0.02    -0.00  -0.01   0.11    -0.00  -0.00   0.01
  68   1     0.00   0.00  -0.01    -0.00  -0.01   0.11    -0.00  -0.00   0.01
  69   1     0.00   0.00   0.00    -0.00   0.00  -0.00    -0.00  -0.00  -0.00
  70   1     0.00  -0.00   0.01    -0.00   0.02  -0.11    -0.00   0.00  -0.01
  71   1     0.00  -0.00   0.02    -0.00   0.02  -0.11    -0.00   0.00  -0.01
  72   1     0.00  -0.00   0.00    -0.00  -0.00   0.00    -0.00  -0.00   0.00
  73   6    -0.00   0.00   0.00     0.00  -0.00   0.00    -0.00   0.00  -0.00
  74   6    -0.00   0.00   0.00     0.00  -0.00   0.00    -0.00  -0.00  -0.00
  75   6    -0.00   0.00   0.00     0.00  -0.00   0.00    -0.00  -0.00  -0.00
  76   6    -0.00   0.00   0.00     0.00   0.00   0.00    -0.00  -0.00  -0.00
  77   6     0.00  -0.00   0.00     0.00   0.00  -0.00    -0.00   0.00  -0.00
  78   6     0.00  -0.00   0.00     0.00   0.00  -0.00    -0.00   0.00  -0.00
  79   6     0.00  -0.00   0.00     0.00   0.00  -0.00    -0.00   0.00  -0.00
  80   6     0.00  -0.00  -0.00     0.00  -0.00   0.00    -0.00   0.00  -0.00
  81  27     0.00  -0.00   0.00     0.00   0.00  -0.00    -0.00  -0.00  -0.00
  82   6    -0.00  -0.03  -0.29     0.00  -0.00  -0.03    -0.00  -0.01  -0.05
  83   6    -0.00  -0.03  -0.29     0.00  -0.00  -0.03    -0.00  -0.01  -0.05
  84   6    -0.00  -0.01  -0.14     0.00  -0.00  -0.01    -0.00  -0.00  -0.02
  85   6    -0.00   0.00   0.00     0.00   0.00   0.00    -0.00  -0.00  -0.00
  86   6    -0.00   0.01   0.14     0.00   0.00   0.01    -0.00  -0.00   0.02
  87   6    -0.00   0.03   0.29     0.00   0.00   0.03    -0.00   0.00   0.04
  88   6    -0.00   0.03   0.29    -0.00   0.00   0.03    -0.00   0.00   0.04
  89   6    -0.00   0.01   0.14     0.00   0.00   0.01    -0.00   0.00   0.02
  90   7    -0.00   0.01   0.08     0.00   0.00   0.01    -0.00  -0.00   0.01
  91   6     0.00   0.00   0.00    -0.00   0.00  -0.01    -0.00  -0.00   0.01
  92   6     0.00  -0.01  -0.14     0.00   0.00  -0.02    -0.00  -0.00  -0.01
  93   6     0.00  -0.03  -0.29    -0.00  -0.00  -0.04    -0.00  -0.00  -0.03
  94   6    -0.00  -0.03  -0.29     0.00  -0.00  -0.04    -0.00  -0.00  -0.03
  95   6     0.00  -0.01  -0.14     0.00   0.00  -0.02    -0.00  -0.00  -0.02
  96   7     0.00  -0.01  -0.08     0.00   0.00  -0.01    -0.00  -0.00  -0.01
  97   6     0.00  -0.00   0.00     0.00   0.00  -0.00    -0.00   0.00  -0.00
  98   6     0.00   0.01   0.14     0.00   0.00   0.02    -0.00   0.00   0.02
  99   6     0.00   0.03   0.29     0.00   0.01   0.04    -0.00   0.00   0.04
 100   6     0.00   0.03   0.29     0.00   0.01   0.04     0.00   0.00   0.04
 101   6     0.00   0.01   0.14     0.00   0.00   0.02    -0.00   0.00   0.02
 102   7     0.00   0.01   0.08     0.00   0.00   0.01    -0.00   0.00   0.01
 103   6    -0.00  -0.00  -0.00     0.00   0.00   0.01    -0.00  -0.00  -0.00
 104   6    -0.00  -0.02  -0.14     0.00   0.00  -0.01    -0.00  -0.00  -0.02
 105   7    -0.00  -0.01  -0.08     0.00   0.00  -0.01    -0.00  -0.00  -0.01
 106   1    -0.00  -0.01  -0.11     0.00  -0.00  -0.01     0.00  -0.00  -0.02
 107   1    -0.00  -0.01  -0.11     0.00  -0.00  -0.01    -0.00  -0.00  -0.02
 108   1    -0.00   0.01   0.11     0.00   0.00   0.01    -0.00   0.00   0.01
 109   1    -0.00   0.01   0.11    -0.00   0.00   0.01    -0.00   0.00   0.02
 110   1     0.00   0.00   0.00    -0.00   0.00  -0.00    -0.00  -0.00   0.00
 111   1    -0.00  -0.01  -0.11    -0.00  -0.00  -0.02    -0.00  -0.00  -0.01
 112   1    -0.00  -0.01  -0.11     0.00  -0.00  -0.01    -0.00  -0.00  -0.01
 113   1     0.00   0.01   0.11     0.00   0.00   0.01    -0.00   0.00   0.01
 114   1     0.00   0.01   0.11     0.00   0.00   0.01     0.00   0.00   0.01
 115   1    -0.00  -0.00  -0.00     0.00   0.00   0.00     0.00  -0.00  -0.00
                     13                     14                     15
                        a                      a                      a 
 Frequencies --    29.8448                37.4184                40.8027
 Red. masses --    14.4416                11.5757                11.9198
 Frc consts  --     0.0000                 0.0000                 0.0000
 IR Inten    --     5.2337                 2.4560                 9.4516
 Raman Activ --     0.0000                 0.0000                 0.0000
 Depolar     --     0.0000                 0.0000                 0.0000
 Atom AN      X      Y      Z        X      Y      Z        X      Y      Z
   1  27     0.00   0.09  -0.01    -0.00   0.03   0.04     0.00  -0.07   0.02
   2   6     0.10   0.12  -0.01     0.03   0.03   0.02    -0.07  -0.08   0.01
   3   6     0.07   0.14  -0.03     0.02   0.05   0.12    -0.05  -0.10   0.06
   4   6     0.04   0.12  -0.02     0.01   0.04   0.13    -0.02  -0.09   0.06
   5   6    -0.00   0.14  -0.03    -0.00   0.05   0.17     0.00  -0.10   0.07
   6   6    -0.04   0.12  -0.02    -0.01   0.04   0.13     0.02  -0.09   0.05
   7   6    -0.07   0.14  -0.02    -0.02   0.05   0.13     0.05  -0.10   0.05
   8   6    -0.10   0.11   0.00    -0.03   0.04   0.03     0.07  -0.08   0.01
   9   6    -0.08   0.08   0.00    -0.03   0.03  -0.02     0.06  -0.05  -0.01
  10   7    -0.04   0.09  -0.01    -0.01   0.03   0.05     0.03  -0.06   0.02
  11   6    -0.10   0.04   0.01    -0.03   0.02  -0.11     0.07  -0.03  -0.04
  12   6    -0.08   0.00   0.01    -0.03   0.00  -0.09     0.05  -0.00  -0.04
  13   6    -0.10  -0.04   0.01    -0.04  -0.01  -0.11     0.07   0.02  -0.04
  14   6    -0.07  -0.06   0.00    -0.03  -0.02  -0.02     0.05   0.04  -0.01
  15   6    -0.03  -0.04  -0.00    -0.01  -0.01   0.03     0.02   0.03   0.01
  16   7    -0.04  -0.00   0.00    -0.02   0.00  -0.02     0.03  -0.00  -0.01
  17   6     0.00  -0.06  -0.00    -0.00  -0.02   0.07    -0.00   0.04   0.03
  18   6     0.04  -0.04   0.00     0.01  -0.01   0.03    -0.02   0.03   0.01
  19   6     0.08  -0.06   0.01     0.02  -0.02  -0.01    -0.05   0.04  -0.01
  20   6     0.10  -0.03   0.02     0.03  -0.01  -0.10    -0.07   0.02  -0.05
  21   6     0.08   0.00   0.01     0.03   0.00  -0.09    -0.05  -0.01  -0.04
  22   7     0.05  -0.00   0.00     0.01  -0.00  -0.01    -0.03  -0.00  -0.01
  23   6     0.10   0.04   0.01     0.03   0.01  -0.11    -0.07  -0.03  -0.04
  24   6     0.08   0.08  -0.00     0.02   0.02  -0.02    -0.05  -0.06  -0.01
  25   7     0.04   0.09  -0.01     0.01   0.03   0.05    -0.03  -0.06   0.02
  26   1     0.04   0.03  -0.00     0.01   0.01  -0.00    -0.03  -0.02   0.00
  27   1     0.02   0.05  -0.01     0.00   0.02   0.05    -0.01  -0.03   0.02
  28   1    -0.02   0.05  -0.01    -0.01   0.02   0.06     0.02  -0.03   0.02
  29   1    -0.04   0.03   0.00    -0.01   0.01  -0.00     0.03  -0.02  -0.00
  30   1    -0.04   0.01   0.01    -0.01   0.00  -0.05     0.03  -0.01  -0.02
  31   1    -0.04  -0.01   0.01    -0.01  -0.00  -0.05     0.03   0.01  -0.02
  32   1    -0.02  -0.03   0.00    -0.01  -0.01   0.00     0.01   0.02  -0.00
  33   1     0.00  -0.03  -0.00    -0.00  -0.01   0.03    -0.00   0.02   0.01
  34   1     0.02  -0.03   0.00     0.01  -0.01   0.00    -0.02   0.02  -0.00
  35   1     0.04  -0.01   0.01     0.01  -0.00  -0.05    -0.03   0.01  -0.02
  36   1     0.04   0.01   0.01     0.01   0.00  -0.05    -0.03  -0.01  -0.02
  37  27    -0.00   0.09   0.00     0.00  -0.03  -0.04    -0.00   0.07  -0.02
  38   6     0.10   0.11   0.02    -0.04  -0.04  -0.03     0.06   0.08  -0.00
  39   6     0.07   0.14  -0.01    -0.03  -0.03  -0.12     0.04   0.11  -0.06
  40   6     0.03   0.12  -0.02    -0.01  -0.02  -0.13     0.02   0.10  -0.07
  41   6    -0.00   0.15  -0.03     0.00  -0.02  -0.16    -0.00   0.11  -0.09
  42   6    -0.03   0.12  -0.02     0.01  -0.02  -0.12    -0.02   0.10  -0.07
  43   6    -0.07   0.14  -0.02     0.03  -0.03  -0.12    -0.05   0.11  -0.07
  44   6    -0.10   0.11   0.01     0.04  -0.04  -0.03    -0.07   0.08  -0.01
  45   6    -0.08   0.07   0.02     0.03  -0.03   0.02    -0.05   0.05   0.02
  46   7    -0.04   0.09  -0.00     0.02  -0.02  -0.05    -0.03   0.07  -0.02
  47   6    -0.10   0.03   0.04     0.03  -0.03   0.10    -0.07   0.02   0.07
  48   6    -0.08  -0.00   0.03     0.03  -0.01   0.08    -0.06  -0.00   0.06
  49   6    -0.10  -0.04   0.03     0.03  -0.00   0.10    -0.07  -0.03   0.07
  50   6    -0.07  -0.06   0.00     0.02   0.02   0.02    -0.05  -0.04   0.00
  51   6    -0.03  -0.04  -0.01     0.01   0.02  -0.02    -0.03  -0.02  -0.03
  52   7    -0.04  -0.00   0.01     0.01  -0.00   0.01    -0.03   0.00   0.01
  53   6    -0.00  -0.06  -0.03    -0.00   0.03  -0.06    -0.00  -0.03  -0.06
  54   6     0.03  -0.04  -0.02    -0.01   0.02  -0.02     0.02  -0.02  -0.03
  55   6     0.07  -0.06  -0.01    -0.03   0.02   0.02     0.05  -0.04   0.00
  56   6     0.10  -0.04   0.02    -0.03  -0.01   0.10     0.07  -0.03   0.06
  57   6     0.08  -0.00   0.03    -0.03  -0.02   0.08     0.05  -0.00   0.06
  58   7     0.04  -0.00   0.00    -0.01  -0.00   0.01     0.03  -0.00   0.01
  59   6     0.10   0.03   0.04    -0.03  -0.03   0.10     0.07   0.02   0.07
  60   6     0.08   0.07   0.02    -0.03  -0.03   0.01     0.05   0.05   0.02
  61   7     0.04   0.09   0.00    -0.01  -0.02  -0.05     0.03   0.07  -0.02
  62   1     0.04   0.03   0.01    -0.01  -0.01   0.00     0.02   0.02   0.01
  63   1     0.02   0.05  -0.01    -0.01  -0.01  -0.05     0.01   0.04  -0.03
  64   1    -0.02   0.05  -0.01     0.01  -0.01  -0.05    -0.01   0.04  -0.03
  65   1    -0.04   0.03   0.00     0.01  -0.01   0.00    -0.03   0.02   0.00
  66   1    -0.04   0.01   0.02     0.01  -0.01   0.04    -0.03   0.00   0.03
  67   1    -0.04  -0.01   0.01     0.01  -0.00   0.04    -0.03  -0.01   0.03
  68   1    -0.02  -0.03  -0.00     0.01   0.01   0.00    -0.02  -0.02  -0.00
  69   1    -0.00  -0.02  -0.01    -0.00   0.01  -0.03    -0.00  -0.01  -0.02
  70   1     0.02  -0.03  -0.01    -0.01   0.01   0.00     0.01  -0.02  -0.01
  71   1     0.04  -0.01   0.01    -0.01  -0.00   0.04     0.03  -0.01   0.03
  72   1     0.04   0.01   0.02    -0.01  -0.01   0.04     0.03   0.00   0.03
  73   6    -0.00   0.16  -0.04    -0.00   0.05   0.17     0.00  -0.10   0.07
  74   6    -0.00   0.08  -0.03    -0.00   0.01   0.11     0.00   0.00   0.04
  75   6    -0.00   0.02  -0.03    -0.00  -0.03   0.03     0.00   0.07   0.01
  76   6    -0.00  -0.08  -0.01    -0.00  -0.06  -0.06     0.00   0.16  -0.03
  77   6    -0.00  -0.07  -0.04     0.00   0.06   0.06    -0.00  -0.16   0.02
  78   6    -0.00   0.02  -0.04     0.00   0.03  -0.03    -0.00  -0.07  -0.02
  79   6    -0.00   0.09  -0.04     0.00   0.01  -0.10    -0.00   0.00  -0.05
  80   6    -0.00   0.16  -0.04     0.00  -0.02  -0.17    -0.00   0.11  -0.08
  81  27    -0.00  -0.21   0.01     0.00  -0.01   0.00     0.00  -0.00  -0.00
  82   6     0.00  -0.09   0.03     0.05  -0.05  -0.16    -0.13   0.09  -0.05
  83   6     0.00  -0.09   0.02     0.03  -0.07  -0.17    -0.09   0.13  -0.06
  84   6    -0.00  -0.09   0.01     0.02  -0.05  -0.12    -0.04   0.11  -0.04
  85   6    -0.00  -0.10  -0.00    -0.00  -0.06  -0.10     0.00   0.13  -0.04
  86   6     0.00  -0.09   0.00    -0.02  -0.05  -0.12     0.05   0.11  -0.04
  87   6    -0.00  -0.09   0.01    -0.03  -0.07  -0.18     0.10   0.13  -0.06
  88   6    -0.00  -0.09   0.03    -0.05  -0.05  -0.16     0.13   0.09  -0.05
  89   6    -0.00  -0.09   0.03    -0.04  -0.03  -0.09     0.11   0.05  -0.03
  90   7    -0.00  -0.10   0.01    -0.02  -0.03  -0.08     0.06   0.06  -0.03
  91   6    -0.00  -0.09   0.03    -0.05  -0.00  -0.00     0.13  -0.00   0.00
  92   6    -0.00  -0.09   0.01    -0.04   0.02   0.09     0.11  -0.05   0.03
  93   6    -0.01  -0.09   0.00    -0.05   0.05   0.16     0.13  -0.10   0.05
  94   6    -0.00  -0.09  -0.02    -0.03   0.06   0.18     0.09  -0.13   0.06
  95   6    -0.00  -0.09  -0.02    -0.02   0.05   0.12     0.04  -0.11   0.04
  96   7    -0.00  -0.10  -0.00    -0.02   0.03   0.08     0.06  -0.06   0.02
  97   6    -0.00  -0.09  -0.03     0.00   0.06   0.11    -0.00  -0.13   0.03
  98   6     0.00  -0.09  -0.02     0.02   0.05   0.12    -0.05  -0.11   0.04
  99   6     0.00  -0.09  -0.02     0.03   0.06   0.18    -0.10  -0.13   0.06
 100   6     0.00  -0.09   0.00     0.05   0.05   0.16    -0.13  -0.09   0.06
 101   6     0.00  -0.09   0.01     0.04   0.02   0.09    -0.11  -0.05   0.03
 102   7     0.00  -0.10  -0.00     0.02   0.03   0.08    -0.06  -0.06   0.03
 103   6     0.00  -0.09   0.03     0.05  -0.00  -0.00    -0.13  -0.00   0.01
 104   6     0.00  -0.09   0.03     0.04  -0.03  -0.09    -0.11   0.05  -0.03
 105   7    -0.00  -0.10   0.01     0.02  -0.03  -0.08    -0.06   0.06  -0.03
 106   1     0.00  -0.03   0.01     0.02  -0.02  -0.06    -0.05   0.03  -0.02
 107   1     0.00  -0.03   0.00     0.01  -0.03  -0.06    -0.03   0.05  -0.02
 108   1    -0.00  -0.03   0.00    -0.01  -0.03  -0.07     0.03   0.05  -0.02
 109   1    -0.00  -0.03   0.01    -0.02  -0.02  -0.06     0.05   0.03  -0.02
 110   1    -0.00  -0.03   0.01    -0.02  -0.00  -0.00     0.05  -0.00   0.00
 111   1    -0.00  -0.03   0.00    -0.02   0.02   0.06     0.05  -0.03   0.02
 112   1    -0.00  -0.03  -0.01    -0.01   0.02   0.07     0.03  -0.05   0.02
 113   1     0.00  -0.03  -0.01     0.01   0.02   0.07    -0.03  -0.05   0.02
 114   1     0.00  -0.03   0.00     0.02   0.02   0.06    -0.05  -0.03   0.02
 115   1     0.00  -0.03   0.01     0.02  -0.00  -0.00    -0.05   0.00   0.00
                     16                     17                     18
                        a                      a                      a 
 Frequencies --    48.9333                52.2263                83.2553
 Red. masses --    12.1715                19.2083                12.1537
 Frc consts  --     0.0000                 0.0000                 0.0000
 IR Inten    --    29.3688                 0.0013                 0.2078
 Raman Activ --     0.0000                 0.0000                 0.0000
 Depolar     --     0.0000                 0.0000                 0.0000
 Atom AN      X      Y      Z        X      Y      Z        X      Y      Z
   1  27    -0.01  -0.00  -0.06    -0.28  -0.00   0.00     0.00   0.00   0.10
   2   6    -0.00   0.00  -0.04    -0.13   0.01   0.01     0.00   0.00   0.08
   3   6    -0.00  -0.00  -0.14    -0.12  -0.00   0.01     0.00   0.01   0.09
   4   6    -0.00  -0.00  -0.14    -0.10   0.01   0.01     0.00   0.00   0.06
   5   6    -0.00  -0.00  -0.17    -0.09   0.00   0.00     0.00   0.00   0.02
   6   6    -0.01  -0.00  -0.14    -0.10  -0.00   0.00     0.00   0.00   0.06
   7   6    -0.01  -0.00  -0.14    -0.12   0.00  -0.00     0.00   0.00   0.09
   8   6    -0.01  -0.00  -0.04    -0.13  -0.01  -0.00     0.00   0.00   0.08
   9   6    -0.00  -0.00   0.01    -0.12  -0.02  -0.00     0.00   0.00   0.03
  10   7    -0.00  -0.00  -0.06    -0.12  -0.02   0.00     0.00   0.00   0.05
  11   6     0.00  -0.00   0.12    -0.12  -0.02  -0.00    -0.00   0.00  -0.08
  12   6     0.00  -0.00   0.11    -0.13  -0.01   0.00    -0.00   0.01  -0.09
  13   6     0.00  -0.00   0.13    -0.13  -0.00   0.00    -0.01   0.01  -0.15
  14   6    -0.00   0.00   0.02    -0.13   0.00   0.01    -0.00   0.00  -0.03
  15   6    -0.00   0.00  -0.05    -0.14  -0.00   0.00    -0.00  -0.00   0.07
  16   7    -0.00  -0.00   0.01    -0.15  -0.01   0.00    -0.00   0.00   0.02
  17   6    -0.00   0.01  -0.10    -0.14  -0.00   0.00     0.00  -0.01   0.13
  18   6    -0.00   0.00  -0.05    -0.14   0.00  -0.00     0.00  -0.00   0.07
  19   6    -0.01   0.00   0.01    -0.13  -0.00  -0.01     0.01  -0.00  -0.03
  20   6    -0.01  -0.00   0.13    -0.12   0.00  -0.01     0.01   0.00  -0.15
  21   6    -0.01  -0.00   0.10    -0.13   0.01  -0.01     0.01   0.00  -0.09
  22   7    -0.01   0.00   0.01    -0.15   0.01  -0.00     0.00  -0.00   0.02
  23   6    -0.01   0.00   0.12    -0.12   0.02  -0.00     0.01   0.00  -0.08
  24   6    -0.01   0.00   0.02    -0.12   0.02   0.00     0.00   0.00   0.03
  25   7    -0.00  -0.00  -0.06    -0.12   0.02   0.00     0.00   0.00   0.05
  26   1    -0.00   0.00  -0.00    -0.04   0.00   0.00     0.00   0.00   0.03
  27   1    -0.00  -0.00  -0.06    -0.03  -0.00   0.00     0.00   0.00   0.04
  28   1    -0.00  -0.00  -0.06    -0.03   0.00  -0.00     0.00   0.00   0.04
  29   1    -0.00  -0.00  -0.00    -0.04  -0.00  -0.00     0.00   0.00   0.03
  30   1     0.00  -0.00   0.06    -0.03  -0.01  -0.00    -0.00   0.00  -0.04
  31   1     0.00  -0.00   0.06    -0.04  -0.00   0.00    -0.00   0.00  -0.07
  32   1    -0.00   0.00  -0.00    -0.04   0.00   0.00    -0.00  -0.00  -0.00
  33   1    -0.00   0.00  -0.04    -0.04  -0.00   0.00    -0.00  -0.00   0.05
  34   1    -0.00   0.00  -0.00    -0.04  -0.00  -0.00     0.00  -0.00  -0.00
  35   1    -0.00  -0.00   0.06    -0.03   0.00  -0.00     0.00   0.00  -0.07
  36   1    -0.00   0.00   0.06    -0.03   0.01  -0.00     0.00  -0.00  -0.04
  37  27     0.01  -0.00  -0.06     0.28   0.00   0.00     0.00   0.01  -0.09
  38   6    -0.01  -0.01  -0.04     0.13  -0.01   0.01    -0.01   0.00  -0.08
  39   6    -0.01   0.00  -0.14     0.12   0.00   0.01    -0.00   0.00  -0.09
  40   6    -0.00   0.01  -0.14     0.10  -0.01   0.00    -0.00  -0.00  -0.06
  41   6     0.00   0.01  -0.16     0.09  -0.00   0.00    -0.00  -0.01  -0.02
  42   6     0.01   0.01  -0.14     0.10   0.01   0.00     0.00  -0.00  -0.06
  43   6     0.02   0.00  -0.14     0.12  -0.00   0.00     0.01   0.00  -0.09
  44   6     0.02  -0.01  -0.04     0.13   0.01   0.00     0.01   0.00  -0.08
  45   6     0.02  -0.01   0.01     0.12   0.02   0.00     0.01  -0.00  -0.03
  46   7     0.01  -0.00  -0.06     0.12   0.02   0.00     0.00   0.00  -0.05
  47   6     0.02  -0.02   0.12     0.12   0.02   0.00     0.01  -0.01   0.07
  48   6     0.01  -0.01   0.10     0.13   0.01   0.00     0.01  -0.01   0.09
  49   6     0.02  -0.01   0.12     0.13   0.00   0.00     0.01  -0.02   0.14
  50   6     0.01   0.01   0.02     0.13  -0.00   0.00     0.01   0.00   0.03
  51   6     0.01   0.01  -0.04     0.14   0.00   0.00     0.00   0.01  -0.06
  52   7     0.01  -0.00   0.01     0.15   0.01   0.00     0.00   0.00  -0.02
  53   6     0.00   0.02  -0.10     0.14   0.00   0.00    -0.00   0.02  -0.12
  54   6    -0.00   0.01  -0.04     0.14  -0.00  -0.00    -0.00   0.01  -0.06
  55   6    -0.00   0.00   0.02     0.13   0.00  -0.00    -0.00   0.00   0.03
  56   6    -0.01  -0.02   0.12     0.12  -0.00  -0.01    -0.00  -0.02   0.14
  57   6    -0.00  -0.02   0.10     0.13  -0.01  -0.01    -0.00  -0.02   0.09
  58   7     0.00  -0.00   0.01     0.15  -0.01  -0.00    -0.00   0.00  -0.02
  59   6    -0.01  -0.03   0.11     0.12  -0.02  -0.00    -0.00  -0.02   0.07
  60   6    -0.01  -0.01   0.01     0.12  -0.02   0.00    -0.00  -0.00  -0.03
  61   7    -0.00  -0.00  -0.06     0.12  -0.02  -0.00    -0.00  -0.00  -0.05
  62   1    -0.00  -0.01  -0.00     0.04  -0.00   0.00    -0.00   0.00  -0.03
  63   1    -0.00   0.00  -0.06     0.03   0.00   0.00    -0.00   0.00  -0.04
  64   1     0.01   0.00  -0.06     0.03  -0.00   0.00     0.00   0.00  -0.04
  65   1     0.01  -0.00  -0.00     0.04   0.00  -0.00     0.00   0.00  -0.03
  66   1     0.01  -0.01   0.05     0.03   0.01   0.00     0.00  -0.01   0.04
  67   1     0.01  -0.01   0.06     0.03   0.00   0.00     0.00  -0.01   0.07
  68   1     0.00   0.00  -0.00     0.04  -0.00   0.00     0.00   0.00   0.00
  69   1     0.00   0.01  -0.04     0.04   0.00   0.00    -0.00   0.01  -0.05
  70   1    -0.00   0.00  -0.00     0.04   0.00  -0.00    -0.00   0.00   0.00
  71   1    -0.00  -0.01   0.06     0.03  -0.00  -0.00    -0.00  -0.01   0.07
  72   1    -0.00  -0.01   0.05     0.03  -0.00  -0.00    -0.00  -0.01   0.04
  73   6    -0.00   0.00  -0.13    -0.08   0.00   0.00    -0.00  -0.01  -0.11
  74   6    -0.00   0.01  -0.00    -0.08   0.00  -0.00    -0.00  -0.03  -0.27
  75   6    -0.00   0.01   0.10    -0.07   0.00  -0.01    -0.00  -0.03  -0.30
  76   6    -0.00   0.02   0.20    -0.06   0.00  -0.01    -0.00  -0.03  -0.21
  77   6     0.00   0.02   0.20     0.06  -0.00  -0.01    -0.00   0.02   0.21
  78   6     0.00   0.01   0.10     0.07  -0.00  -0.01    -0.00   0.00   0.29
  79   6     0.00   0.01  -0.01     0.08  -0.00  -0.00    -0.00  -0.01   0.26
  80   6     0.00   0.00  -0.13     0.08  -0.00   0.00    -0.00  -0.03   0.10
  81  27    -0.00   0.01   0.11     0.00  -0.00  -0.01    -0.01   0.01   0.01
  82   6     0.00  -0.01  -0.08    -0.00   0.01   0.01     0.00   0.02   0.17
  83   6     0.00   0.00   0.09    -0.01  -0.00  -0.00     0.00   0.01   0.09
  84   6    -0.00   0.01   0.14    -0.04   0.01  -0.01    -0.00  -0.00  -0.00
  85   6    -0.00   0.02   0.20    -0.05   0.00  -0.01    -0.00  -0.01  -0.09
  86   6    -0.00   0.01   0.14    -0.03  -0.01  -0.01    -0.00  -0.00  -0.00
  87   6    -0.00   0.01   0.09    -0.01   0.01  -0.00    -0.01   0.00   0.09
  88   6    -0.00  -0.01  -0.08     0.00  -0.01   0.01    -0.01   0.01   0.17
  89   6    -0.00  -0.01  -0.10    -0.01  -0.03   0.01    -0.01   0.01   0.09
  90   7    -0.00   0.00   0.04    -0.03  -0.02   0.00    -0.01   0.00   0.02
  91   6    -0.00  -0.02  -0.19     0.00  -0.04   0.02    -0.01   0.00  -0.00
  92   6    -0.00  -0.01  -0.09     0.01  -0.03   0.01    -0.01  -0.00  -0.09
  93   6    -0.00  -0.01  -0.07     0.00  -0.01   0.01    -0.01  -0.01  -0.17
  94   6    -0.00   0.01   0.09     0.01   0.00  -0.00    -0.01   0.00  -0.09
  95   6     0.00   0.02   0.14     0.04  -0.01  -0.01    -0.00   0.01   0.01
  96   7    -0.00   0.00   0.05     0.03  -0.03   0.00    -0.01   0.00  -0.02
  97   6     0.00   0.02   0.20     0.05  -0.00  -0.01    -0.00   0.02   0.10
  98   6     0.00   0.02   0.14     0.03   0.00  -0.01    -0.00   0.01   0.01
  99   6     0.00   0.01   0.09     0.01  -0.01  -0.01     0.00  -0.00  -0.09
 100   6     0.00  -0.01  -0.07    -0.00   0.01   0.00     0.00  -0.01  -0.17
 101   6     0.00  -0.01  -0.09     0.01   0.03   0.00     0.00  -0.00  -0.09
 102   7     0.00   0.01   0.05     0.03   0.02  -0.01    -0.00   0.00  -0.02
 103   6     0.00  -0.02  -0.19    -0.00   0.04   0.01     0.00   0.00  -0.00
 104   6     0.00  -0.01  -0.10    -0.01   0.03   0.00     0.00   0.01   0.09
 105   7    -0.00   0.00   0.04    -0.03   0.03  -0.00     0.00   0.00   0.02
 106   1     0.00  -0.01  -0.05     0.00   0.00   0.00     0.00   0.01   0.07
 107   1     0.00   0.00   0.04    -0.00  -0.00  -0.00     0.00   0.00   0.03
 108   1    -0.00   0.00   0.04    -0.00   0.01  -0.00    -0.00   0.00   0.03
 109   1    -0.00  -0.01  -0.05     0.01  -0.00   0.00    -0.00   0.01   0.07
 110   1    -0.00  -0.01  -0.09     0.00  -0.01   0.01    -0.00   0.00  -0.00
 111   1    -0.00  -0.00  -0.05    -0.00  -0.00   0.00    -0.00  -0.01  -0.08
 112   1    -0.00   0.01   0.05     0.00   0.00  -0.00    -0.00   0.00  -0.03
 113   1     0.00   0.01   0.05     0.00  -0.01  -0.00     0.00  -0.00  -0.03
 114   1     0.00  -0.00  -0.05    -0.01   0.00   0.00     0.00  -0.01  -0.08
 115   1     0.00  -0.01  -0.09    -0.00   0.01   0.00     0.00   0.00  -0.00
                     19                     20                     21
                        a                      a                      a 
 Frequencies --    96.5754               100.7201               100.9259
 Red. masses --    23.2540                27.5144                27.8252
 Frc consts  --     0.0000                 0.0000                 0.0000
 IR Inten    --     6.9673                10.0508                12.8633
 Raman Activ --     0.0000                 0.0000                 0.0000
 Depolar     --     0.0000                 0.0000                 0.0000
 Atom AN      X      Y      Z        X      Y      Z        X      Y      Z
   1  27    -0.00   0.00   0.10    -0.04   0.00  -0.57    -0.03  -0.00   0.15
   2   6    -0.00   0.00   0.07    -0.03   0.02   0.26    -0.01  -0.00  -0.07
   3   6    -0.00   0.00   0.04    -0.02   0.01   0.23    -0.01  -0.00  -0.06
   4   6    -0.00  -0.00   0.01    -0.01   0.01  -0.02    -0.00   0.00   0.00
   5   6    -0.00  -0.00  -0.04     0.01   0.00  -0.04     0.00  -0.00   0.01
   6   6    -0.00  -0.00   0.01     0.00   0.00  -0.02    -0.01  -0.00   0.01
   7   6     0.00  -0.00   0.04     0.00   0.01   0.23    -0.01  -0.00  -0.06
   8   6     0.00   0.00   0.07    -0.01   0.01   0.26    -0.02  -0.01  -0.07
   9   6     0.00  -0.00   0.04    -0.01  -0.01   0.01    -0.01  -0.01  -0.00
  10   7    -0.00  -0.00   0.03    -0.00  -0.01  -0.15    -0.01  -0.01   0.04
  11   6    -0.00   0.00  -0.04    -0.01  -0.01  -0.00    -0.01  -0.01   0.00
  12   6    -0.00   0.00  -0.07    -0.02  -0.01  -0.05    -0.02  -0.00   0.01
  13   6    -0.00   0.01  -0.13    -0.01  -0.01   0.15    -0.02   0.00  -0.04
  14   6    -0.00   0.00  -0.03    -0.01  -0.01   0.21    -0.02   0.00  -0.05
  15   6    -0.00  -0.00   0.06    -0.02  -0.01   0.02    -0.02   0.00  -0.00
  16   7    -0.00   0.00   0.03    -0.02  -0.01  -0.15    -0.02  -0.00   0.04
  17   6    -0.00  -0.00   0.11    -0.03  -0.01   0.08    -0.02   0.00  -0.02
  18   6    -0.00  -0.00   0.06    -0.03  -0.01   0.02    -0.02   0.00  -0.01
  19   6     0.00   0.00  -0.03    -0.03  -0.01   0.20    -0.01   0.00  -0.06
  20   6     0.01   0.00  -0.13    -0.03  -0.01   0.15    -0.01   0.00  -0.04
  21   6     0.00   0.00  -0.07    -0.02   0.00  -0.05    -0.01   0.01   0.01
  22   7    -0.00  -0.00   0.03    -0.03   0.00  -0.15    -0.02   0.00   0.04
  23   6     0.00   0.00  -0.04    -0.02   0.01  -0.00    -0.01   0.01   0.00
  24   6    -0.00   0.00   0.04    -0.02   0.02   0.01    -0.01   0.01  -0.00
  25   7    -0.00   0.00   0.03    -0.01   0.01  -0.15    -0.01   0.01   0.04
  26   1    -0.00   0.00   0.03    -0.01   0.01   0.13    -0.00  -0.00  -0.03
  27   1    -0.00   0.00   0.01    -0.01   0.00   0.11    -0.00  -0.00  -0.03
  28   1     0.00  -0.00   0.01     0.00   0.01   0.11    -0.00   0.00  -0.03
  29   1     0.00   0.00   0.03    -0.00   0.00   0.13    -0.01  -0.00  -0.03
  30   1    -0.00   0.00  -0.02    -0.00  -0.00   0.03    -0.00  -0.00  -0.01
  31   1    -0.00   0.00  -0.06    -0.00  -0.01   0.08    -0.00   0.00  -0.02
  32   1    -0.00   0.00  -0.01    -0.00  -0.00   0.11    -0.01   0.00  -0.03
  33   1    -0.00  -0.00   0.04    -0.01  -0.00   0.06    -0.01   0.00  -0.02
  34   1     0.00   0.00  -0.01    -0.01  -0.01   0.10    -0.00   0.00  -0.03
  35   1     0.00   0.00  -0.06    -0.01  -0.00   0.07    -0.00   0.00  -0.02
  36   1     0.00   0.00  -0.02    -0.00   0.00   0.03    -0.00   0.00  -0.01
  37  27     0.00  -0.01   0.10    -0.04  -0.02   0.13    -0.02  -0.10   0.56
  38   6     0.00  -0.01   0.07    -0.02   0.02  -0.06    -0.02   0.06  -0.25
  39   6     0.00  -0.00   0.04    -0.02   0.01  -0.05    -0.02   0.05  -0.23
  40   6     0.00   0.00   0.01    -0.01   0.00   0.00    -0.00   0.00   0.02
  41   6     0.00   0.01  -0.04     0.00  -0.00   0.01     0.01  -0.01   0.04
  42   6    -0.00   0.00   0.01    -0.00  -0.00   0.00     0.00  -0.00   0.02
  43   6    -0.00  -0.00   0.04    -0.01   0.01  -0.05    -0.00   0.04  -0.23
  44   6    -0.00  -0.01   0.07    -0.02   0.01  -0.06    -0.00   0.04  -0.25
  45   6    -0.00  -0.00   0.04    -0.01  -0.01  -0.01    -0.01  -0.00  -0.01
  46   7    -0.00  -0.00   0.03    -0.01  -0.02   0.03    -0.00  -0.03   0.15
  47   6    -0.00   0.01  -0.04    -0.02  -0.01  -0.00    -0.01  -0.01   0.00
  48   6    -0.00   0.01  -0.07    -0.02  -0.01   0.01    -0.01  -0.02   0.04
  49   6    -0.00   0.02  -0.13    -0.02   0.00  -0.03    -0.01   0.02  -0.15
  50   6    -0.00   0.00  -0.04    -0.02   0.01  -0.05    -0.01   0.03  -0.20
  51   6     0.00  -0.01   0.06    -0.03  -0.00  -0.01    -0.02  -0.00  -0.02
  52   7     0.00  -0.01   0.03    -0.03  -0.01   0.03    -0.02  -0.03   0.14
  53   6     0.00  -0.02   0.11    -0.03   0.00  -0.02    -0.02   0.01  -0.08
  54   6     0.00  -0.01   0.06    -0.03   0.00  -0.01    -0.02   0.00  -0.02
  55   6    -0.00   0.00  -0.04    -0.02   0.00  -0.05    -0.03   0.03  -0.20
  56   6    -0.00   0.02  -0.13    -0.02   0.01  -0.03    -0.02   0.02  -0.15
  57   6    -0.00   0.01  -0.07    -0.02   0.00   0.01    -0.02  -0.00   0.05
  58   7     0.00  -0.00   0.03    -0.03  -0.00   0.03    -0.02  -0.02   0.15
  59   6     0.00   0.01  -0.04    -0.02   0.01   0.00    -0.01   0.01   0.01
  60   6     0.00  -0.00   0.04    -0.02   0.01  -0.00    -0.01   0.01  -0.01
  61   7     0.00  -0.00   0.03    -0.01   0.01   0.04    -0.01  -0.02   0.15
  62   1     0.00  -0.00   0.03    -0.01   0.01  -0.03    -0.01   0.03  -0.12
  63   1     0.00  -0.00   0.01    -0.00   0.00  -0.03    -0.01   0.02  -0.11
  64   1    -0.00  -0.00   0.01    -0.00   0.01  -0.03     0.00   0.02  -0.11
  65   1    -0.00  -0.00   0.03    -0.01   0.00  -0.03    -0.00   0.02  -0.12
  66   1    -0.00   0.00  -0.02    -0.00  -0.00  -0.01    -0.00   0.00  -0.03
  67   1    -0.00   0.01  -0.07    -0.00   0.00  -0.02    -0.00   0.01  -0.07
  68   1    -0.00   0.00  -0.01    -0.01   0.00  -0.02    -0.00   0.02  -0.10
  69   1     0.00  -0.01   0.04    -0.01   0.00  -0.02    -0.01   0.01  -0.06
  70   1    -0.00   0.00  -0.01    -0.01   0.00  -0.02    -0.01   0.01  -0.10
  71   1    -0.00   0.01  -0.07    -0.00   0.00  -0.02    -0.01   0.01  -0.07
  72   1     0.00   0.00  -0.02    -0.00   0.00  -0.01    -0.00   0.01  -0.03
  73   6    -0.00  -0.01  -0.14     0.01  -0.00  -0.00     0.01   0.00  -0.00
  74   6    -0.00  -0.01  -0.21     0.01  -0.01  -0.02     0.01   0.00  -0.00
  75   6    -0.00  -0.01  -0.18     0.02  -0.01  -0.02     0.01   0.00  -0.00
  76   6    -0.00  -0.00  -0.05     0.02  -0.00  -0.02     0.01  -0.00   0.00
  77   6     0.00  -0.00  -0.05     0.02  -0.00   0.01     0.01   0.00   0.02
  78   6     0.00   0.02  -0.19     0.01  -0.00   0.01     0.01  -0.00   0.02
  79   6     0.00   0.03  -0.22     0.01  -0.00   0.01     0.01  -0.00   0.02
  80   6     0.00   0.03  -0.14     0.01  -0.00   0.00     0.01  -0.00  -0.00
  81  27     0.00   0.04   0.48     0.07   0.01   0.04     0.05  -0.01  -0.06
  82   6    -0.00  -0.02  -0.17     0.03   0.00  -0.01     0.02   0.00   0.03
  83   6    -0.00  -0.01  -0.09     0.03  -0.00  -0.01     0.02   0.00   0.03
  84   6    -0.00   0.01   0.08     0.03   0.00  -0.00     0.02   0.00  -0.00
  85   6    -0.00   0.01   0.08     0.02   0.00  -0.01     0.01  -0.00  -0.00
  86   6     0.00   0.01   0.08     0.03  -0.00  -0.00     0.02  -0.00  -0.00
  87   6     0.00  -0.01  -0.09     0.03   0.00  -0.01     0.02   0.00   0.03
  88   6     0.01  -0.02  -0.17     0.03  -0.00  -0.01     0.02   0.00   0.03
  89   6     0.00  -0.00  -0.03     0.03  -0.00   0.01     0.02  -0.00  -0.00
  90   7     0.00   0.01   0.14     0.03  -0.00   0.01     0.02  -0.01  -0.02
  91   6     0.01  -0.01  -0.10     0.03   0.00   0.00     0.02  -0.00  -0.00
  92   6     0.00  -0.01  -0.03     0.03   0.00  -0.00     0.02   0.00  -0.01
  93   6     0.00  -0.02  -0.16     0.03   0.00  -0.02     0.02   0.00   0.02
  94   6     0.00  -0.02  -0.09     0.03  -0.00  -0.02     0.02   0.00   0.02
  95   6     0.00   0.00   0.08     0.03   0.00   0.00     0.02   0.00   0.00
  96   7     0.00   0.01   0.14     0.03   0.01   0.01     0.02   0.00  -0.02
  97   6     0.00   0.00   0.07     0.02   0.00   0.01     0.02   0.00   0.01
  98   6     0.00   0.00   0.08     0.03  -0.00   0.00     0.02  -0.00   0.00
  99   6    -0.00  -0.02  -0.09     0.03  -0.00  -0.02     0.02   0.00   0.02
 100   6    -0.00  -0.02  -0.16     0.03  -0.00  -0.02     0.02   0.00   0.02
 101   6    -0.00  -0.01  -0.03     0.03  -0.00  -0.00     0.02  -0.00  -0.00
 102   7     0.00   0.01   0.14     0.03  -0.00   0.01     0.02  -0.00  -0.02
 103   6    -0.00  -0.01  -0.10     0.03   0.00   0.00     0.02   0.00  -0.00
 104   6    -0.00  -0.01  -0.03     0.03   0.00   0.01     0.02   0.00  -0.00
 105   7    -0.00   0.01   0.14     0.03   0.01   0.01     0.02   0.00  -0.02
 106   1    -0.00  -0.01  -0.09     0.01   0.00  -0.00     0.01   0.00   0.01
 107   1    -0.00  -0.00  -0.05     0.01  -0.00  -0.01     0.01   0.00   0.01
 108   1     0.00  -0.00  -0.05     0.01   0.00  -0.01     0.01   0.00   0.01
 109   1     0.00  -0.01  -0.09     0.01  -0.00  -0.00     0.01   0.00   0.01
 110   1     0.00  -0.01  -0.07     0.01   0.00  -0.00     0.01   0.00   0.00
 111   1     0.00  -0.01  -0.09     0.01  -0.00  -0.01     0.01   0.00   0.01
 112   1     0.00  -0.01  -0.05     0.01  -0.00  -0.01     0.01   0.00   0.01
 113   1    -0.00  -0.01  -0.05     0.01  -0.00  -0.01     0.01   0.00   0.01
 114   1    -0.00  -0.01  -0.09     0.01  -0.00  -0.01     0.01   0.00   0.01
 115   1    -0.00  -0.01  -0.07     0.01  -0.00  -0.00     0.01   0.00   0.00
                     22                     23                     24
                        a                      a                      a 
 Frequencies --   102.4512               106.7090               117.5768
 Red. masses --    20.4992                17.8362                10.5170
 Frc consts  --     0.0000                 0.0000                 0.0000
 IR Inten    --   503.5904                 7.6950                 1.0845
 Raman Activ --     0.0000                 0.0000                 0.0000
 Depolar     --     0.0000                 0.0000                 0.0000
 Atom AN      X      Y      Z        X      Y      Z        X      Y      Z
   1  27    -0.17  -0.00   0.11     0.00  -0.00  -0.02    -0.00  -0.00  -0.00
   2   6    -0.08   0.02  -0.04     0.00  -0.00  -0.11    -0.00  -0.00  -0.00
   3   6    -0.05  -0.01  -0.04     0.00  -0.00  -0.05    -0.00  -0.00   0.00
   4   6    -0.02   0.01   0.00     0.00   0.00   0.02     0.00   0.00   0.00
   5   6     0.02   0.00   0.01     0.00   0.00   0.09     0.00  -0.00   0.00
   6   6    -0.02  -0.01   0.01    -0.00   0.00   0.02     0.00  -0.00  -0.00
   7   6    -0.06   0.00  -0.04    -0.00   0.00  -0.05    -0.00  -0.00  -0.00
   8   6    -0.08  -0.02  -0.05    -0.00  -0.00  -0.11    -0.00  -0.00  -0.00
   9   6    -0.07  -0.05  -0.00    -0.00   0.00  -0.05     0.00  -0.00   0.00
  10   7    -0.03  -0.04   0.03    -0.00   0.00   0.00     0.00  -0.00   0.00
  11   6    -0.07  -0.05  -0.00    -0.00  -0.00   0.02     0.00  -0.00   0.01
  12   6    -0.08  -0.03   0.01     0.00  -0.00   0.07    -0.00  -0.00   0.00
  13   6    -0.08  -0.01  -0.03     0.00  -0.01   0.11    -0.00   0.00   0.00
  14   6    -0.09   0.01  -0.04     0.00  -0.00   0.01    -0.00   0.00  -0.00
  15   6    -0.11  -0.01  -0.00     0.00   0.00  -0.06    -0.00   0.00  -0.00
  16   7    -0.11  -0.03   0.03     0.00  -0.00  -0.02    -0.00   0.00   0.00
  17   6    -0.12  -0.00  -0.02     0.00   0.00  -0.13    -0.00   0.00  -0.00
  18   6    -0.11   0.01  -0.01     0.00   0.00  -0.06    -0.00  -0.00   0.00
  19   6    -0.09  -0.00  -0.05    -0.00  -0.00   0.01    -0.00  -0.00   0.01
  20   6    -0.07   0.01  -0.03    -0.01  -0.00   0.11    -0.00  -0.00   0.00
  21   6    -0.08   0.03   0.01    -0.00  -0.00   0.07    -0.00  -0.00  -0.00
  22   7    -0.11   0.03   0.03    -0.00   0.00  -0.02    -0.00  -0.00  -0.00
  23   6    -0.07   0.05   0.00    -0.00   0.00   0.02    -0.00   0.00  -0.01
  24   6    -0.06   0.05   0.00     0.00  -0.00  -0.05    -0.00  -0.00  -0.00
  25   7    -0.03   0.04   0.03     0.00   0.00   0.00     0.00  -0.00  -0.00
  26   1    -0.03   0.00  -0.02     0.00  -0.00  -0.05    -0.00  -0.00  -0.00
  27   1    -0.02  -0.01  -0.02     0.00  -0.00  -0.02    -0.00  -0.00   0.00
  28   1    -0.02   0.01  -0.02    -0.00   0.00  -0.02    -0.00  -0.00  -0.00
  29   1    -0.03  -0.01  -0.03    -0.00  -0.00  -0.05    -0.00  -0.00   0.00
  30   1    -0.02  -0.01  -0.01    -0.00  -0.00   0.01     0.00  -0.00   0.00
  31   1    -0.02  -0.00  -0.01     0.00  -0.00   0.06     0.00   0.00   0.00
  32   1    -0.03   0.01  -0.02     0.00  -0.00   0.00    -0.00   0.00  -0.00
  33   1    -0.03  -0.00  -0.01     0.00   0.00  -0.05    -0.00   0.00  -0.00
  34   1    -0.02  -0.01  -0.02    -0.00  -0.00   0.00    -0.00  -0.00   0.00
  35   1    -0.02   0.00  -0.02    -0.00  -0.00   0.06    -0.00  -0.00   0.00
  36   1    -0.02   0.01  -0.00    -0.00   0.00   0.01     0.00   0.00  -0.00
  37  27    -0.17   0.02  -0.13    -0.00   0.01  -0.03    -0.00  -0.00  -0.00
[...]
 107   1    -0.00  -0.00   0.00    -0.16  -0.02   0.00    -0.40  -0.04   0.00
 108   1    -0.00   0.00  -0.00    -0.41   0.05  -0.01     0.03  -0.00   0.00
 109   1    -0.00   0.00  -0.00    -0.02   0.25  -0.02     0.00  -0.03   0.00
 110   1    -0.00   0.00  -0.00     0.00   0.00  -0.00     0.00  -0.00   0.00
 111   1     0.00   0.01  -0.00    -0.01  -0.08   0.01    -0.03  -0.29   0.03
 112   1    -0.00  -0.00  -0.00    -0.16  -0.02   0.00    -0.47  -0.05   0.01
 113   1    -0.00   0.00   0.00    -0.47   0.05  -0.00     0.02  -0.00   0.00
 114   1     0.00  -0.01   0.00    -0.03   0.29  -0.03     0.00  -0.03   0.00
 115   1    -0.00  -0.00   0.00     0.00   0.00  -0.00     0.00  -0.00   0.00
                    334                    335                    336
                        a                      a                      a 
 Frequencies --  3168.5853              3168.9051              3168.9635
 Red. masses --     1.9719                 1.9711                 1.9714
 Frc consts  --     0.0000                 0.0000                 0.0000
 IR Inten    --    50.9751               104.0309                63.4402
 Raman Activ --     0.0000                 0.0000                 0.0000
 Depolar     --     0.0000                 0.0000                 0.0000
 Atom AN      X      Y      Z        X      Y      Z        X      Y      Z
   1  27     0.00   0.00  -0.00     0.00  -0.00   0.00    -0.00  -0.00   0.00
   2   6     0.00  -0.04   0.00    -0.00   0.02  -0.00     0.00  -0.08   0.00
   3   6     0.06  -0.00   0.00    -0.02   0.00  -0.00     0.11  -0.01   0.00
   4   6     0.00   0.00  -0.00    -0.00  -0.00   0.00     0.00   0.00  -0.00
   5   6    -0.00  -0.00   0.00    -0.00   0.00  -0.00     0.00   0.00   0.00
   6   6    -0.00   0.00  -0.00     0.00  -0.00   0.00     0.00  -0.00   0.00
   7   6    -0.14  -0.01   0.00     0.04   0.00  -0.00     0.11   0.01  -0.00
   8   6    -0.00  -0.10   0.00     0.00   0.03  -0.00     0.00   0.08  -0.00
   9   6     0.00  -0.00  -0.00    -0.00   0.00   0.00    -0.00   0.00   0.00
  10   7     0.00   0.00  -0.00    -0.00  -0.00   0.00    -0.00  -0.00   0.00
  11   6    -0.00  -0.00   0.00     0.00   0.00  -0.00     0.00   0.00  -0.00
  12   6    -0.00   0.00   0.00    -0.00  -0.00  -0.00     0.00   0.00   0.00
  13   6     0.00  -0.00  -0.00     0.00  -0.00  -0.00    -0.00   0.01   0.00
  14   6     0.00  -0.00  -0.00     0.00  -0.00  -0.00    -0.01   0.00   0.00
  15   6     0.00   0.00   0.00     0.00   0.00  -0.00    -0.00  -0.00  -0.00
  16   7     0.00   0.00  -0.00    -0.00  -0.00   0.00     0.00  -0.00  -0.00
  17   6     0.00  -0.00   0.00     0.00   0.00   0.00    -0.00  -0.00  -0.00
  18   6     0.00  -0.00   0.00    -0.00   0.00  -0.00    -0.00   0.00  -0.00
  19   6     0.01   0.00   0.00    -0.00  -0.00  -0.00    -0.01  -0.00  -0.00
  20   6     0.00   0.01   0.00    -0.00  -0.00  -0.00    -0.00  -0.01  -0.00
  21   6    -0.00   0.00   0.00     0.00  -0.00  -0.00     0.00  -0.00  -0.00
  22   7    -0.00  -0.00  -0.00     0.00  -0.00   0.00     0.00   0.00   0.00
  23   6     0.00  -0.00   0.00    -0.00   0.00  -0.00     0.00  -0.00   0.00
  24   6    -0.00  -0.00  -0.00     0.00   0.00   0.00    -0.00  -0.00  -0.00
  25   7    -0.00   0.00  -0.00     0.00  -0.00   0.00    -0.00   0.00  -0.00
  26   1    -0.01   0.12  -0.00     0.01  -0.05   0.00    -0.03   0.24  -0.01
  27   1    -0.19   0.02  -0.01     0.07  -0.01   0.00    -0.37   0.04  -0.01
  28   1     0.46   0.05  -0.01    -0.13  -0.02   0.00    -0.36  -0.04   0.01
  29   1     0.03   0.31  -0.01    -0.01  -0.09   0.00    -0.02  -0.24   0.00
  30   1    -0.00   0.01   0.00     0.00  -0.00  -0.00     0.00  -0.01  -0.00
  31   1    -0.00   0.01   0.00    -0.00   0.00   0.00     0.00  -0.03  -0.00
  32   1    -0.00   0.00   0.00    -0.00   0.00   0.00     0.03  -0.00  -0.00
  33   1    -0.00   0.00  -0.00    -0.00  -0.00  -0.00     0.00   0.00   0.00
  34   1    -0.02  -0.00  -0.00     0.00   0.00   0.00     0.03   0.00   0.00
  35   1    -0.00  -0.02  -0.00     0.00   0.00   0.00     0.00   0.03   0.00
  36   1     0.00   0.00   0.00    -0.00  -0.00   0.00     0.00   0.01  -0.00
  37  27    -0.00  -0.00   0.00    -0.00  -0.00   0.00     0.00  -0.00   0.00
  38   6    -0.00   0.05   0.01    -0.00   0.03   0.01    -0.00   0.06   0.01
  39   6    -0.07   0.00   0.00    -0.04   0.00   0.00    -0.09   0.01   0.00
  40   6    -0.00  -0.00  -0.00    -0.00  -0.00  -0.00    -0.00  -0.00  -0.00
  41   6     0.00   0.00   0.00     0.00   0.00   0.00    -0.00   0.00   0.00
  42   6     0.00  -0.00  -0.00     0.00  -0.01  -0.00    -0.00   0.00   0.00
  43   6     0.12   0.01   0.00     0.16   0.01   0.01    -0.03  -0.00  -0.00
  44   6     0.00   0.08   0.01     0.00   0.11   0.02    -0.00  -0.02  -0.00
  45   6    -0.00   0.00   0.00    -0.00   0.00   0.00     0.00  -0.00  -0.00
  46   7    -0.00  -0.00  -0.00    -0.00  -0.00  -0.00     0.00   0.00   0.00
  47   6     0.00   0.00   0.00     0.00   0.00   0.00    -0.00  -0.00  -0.00
  48   6     0.00  -0.00  -0.00     0.00  -0.00  -0.00    -0.00  -0.00  -0.00
  49   6    -0.00   0.00   0.00    -0.00   0.00   0.00     0.00  -0.01  -0.00
  50   6     0.00  -0.00  -0.00    -0.00   0.00   0.00     0.01  -0.00  -0.00
  51   6    -0.00  -0.00  -0.00    -0.00  -0.00  -0.00     0.00   0.00   0.00
  52   7    -0.00  -0.00  -0.00    -0.00  -0.00  -0.00    -0.00   0.00   0.00
  53   6    -0.00   0.00   0.00    -0.00   0.00   0.00     0.00   0.00  -0.00
  54   6    -0.00   0.00   0.00    -0.00   0.00   0.00     0.00  -0.00  -0.00
  55   6    -0.00  -0.00   0.00    -0.01  -0.00   0.00     0.00   0.00  -0.00
  56   6    -0.00  -0.00  -0.00    -0.00  -0.01  -0.00     0.00   0.01   0.00
  57   6     0.00  -0.00  -0.00     0.00  -0.00  -0.00    -0.00  -0.00   0.00
  58   7     0.00   0.00  -0.00     0.00   0.00   0.00    -0.00  -0.00  -0.00
  59   6    -0.00   0.00   0.00    -0.00   0.00   0.00    -0.00   0.00   0.00
  60   6     0.00   0.00   0.00     0.00   0.00   0.00     0.00   0.00   0.00
  61   7     0.00  -0.00  -0.00     0.00  -0.00  -0.00     0.00  -0.00  -0.00
  62   1     0.02  -0.15  -0.03     0.01  -0.09  -0.02     0.02  -0.18  -0.04
  63   1     0.23  -0.02  -0.01     0.14  -0.01  -0.00     0.28  -0.03  -0.01
  64   1    -0.38  -0.04  -0.01    -0.53  -0.06  -0.02     0.08   0.01   0.00
  65   1    -0.02  -0.26  -0.05    -0.03  -0.35  -0.06     0.01   0.05   0.01
  66   1     0.00  -0.00  -0.00     0.00  -0.01  -0.00     0.00   0.00   0.00
  67   1    -0.00  -0.00  -0.00     0.00  -0.01  -0.00    -0.00   0.02   0.00
  68   1    -0.00   0.00  -0.00     0.01  -0.00  -0.00    -0.02   0.00   0.00
  69   1     0.00  -0.00  -0.00     0.00  -0.00  -0.00    -0.00  -0.00   0.00
  70   1     0.02   0.00  -0.00     0.02   0.00  -0.00    -0.02  -0.00   0.00
  71   1     0.00   0.02   0.00     0.00   0.02   0.00    -0.00  -0.02  -0.00
  72   1    -0.00  -0.00  -0.00    -0.00  -0.00  -0.00    -0.00  -0.00  -0.00
  73   6     0.00  -0.00  -0.00    -0.00   0.00  -0.00    -0.00   0.00   0.00
  74   6    -0.00   0.00  -0.00     0.00  -0.00   0.00     0.00  -0.00  -0.00
  75   6    -0.00  -0.00   0.00    -0.00  -0.00   0.00    -0.00  -0.00   0.00
  76   6     0.00   0.00  -0.00     0.00   0.00   0.00     0.00   0.00  -0.00
  77   6    -0.00  -0.00   0.00     0.00   0.00  -0.00     0.00  -0.00   0.00
  78   6    -0.00   0.00  -0.00    -0.00  -0.00   0.00    -0.00   0.00  -0.00
  79   6     0.00  -0.00  -0.00     0.00  -0.00  -0.00    -0.00  -0.00  -0.00
  80   6    -0.00   0.00   0.00    -0.00   0.00   0.00     0.00   0.00   0.00
  81  27     0.00   0.00   0.00     0.00  -0.00  -0.00    -0.00  -0.00  -0.00
  82   6     0.00   0.01  -0.00    -0.00  -0.01   0.00     0.00   0.08  -0.01
  83   6     0.02   0.00  -0.00    -0.01  -0.00   0.00     0.12   0.01  -0.00
  84   6     0.00  -0.00   0.00    -0.00   0.00  -0.00     0.00  -0.00   0.00
  85   6    -0.00   0.00  -0.00    -0.00   0.00  -0.00     0.00   0.00  -0.00
  86   6    -0.00  -0.00   0.00    -0.00  -0.00   0.00    -0.00  -0.00   0.00
  87   6    -0.06   0.00  -0.00    -0.04   0.00  -0.00    -0.04   0.00  -0.00
  88   6    -0.00   0.04  -0.00    -0.00   0.03  -0.00    -0.00   0.02  -0.00
  89   6     0.00   0.00  -0.00     0.00   0.00   0.00     0.00   0.00  -0.00
  90   7     0.00  -0.00   0.00     0.00  -0.00   0.00     0.00  -0.00   0.00
  91   6    -0.00   0.00  -0.00     0.00   0.00  -0.00    -0.00  -0.00   0.00
  92   6     0.00  -0.00   0.00    -0.00   0.00  -0.00     0.00  -0.00   0.00
  93   6    -0.00  -0.05   0.00     0.00   0.07  -0.01    -0.00  -0.06   0.01
  94   6    -0.07  -0.00   0.00     0.10   0.01  -0.00    -0.08  -0.01   0.00
  95   6    -0.00   0.00  -0.00     0.00  -0.00   0.00    -0.00   0.00  -0.00
  96   7     0.00   0.00  -0.00    -0.00  -0.00   0.00     0.00   0.00  -0.00
  97   6     0.00  -0.00   0.00    -0.00   0.00  -0.00    -0.00  -0.00   0.00
  98   6     0.00   0.00  -0.00    -0.00  -0.00   0.00    -0.00  -0.00   0.00
  99   6     0.09  -0.01   0.00    -0.13   0.01  -0.00    -0.05   0.00  -0.00
 100   6     0.00  -0.06   0.01    -0.00   0.09  -0.01    -0.00   0.03  -0.00
 101   6    -0.00  -0.00   0.00     0.00   0.00  -0.00     0.00   0.00  -0.00
 102   7    -0.00   0.00  -0.00     0.00  -0.00   0.00     0.00  -0.00   0.00
 103   6     0.00  -0.00   0.00    -0.00   0.00  -0.00     0.00   0.00  -0.00
 104   6    -0.00   0.00  -0.00     0.00  -0.00   0.00    -0.00   0.00  -0.00
 105   7    -0.00  -0.00   0.00     0.00   0.00  -0.00    -0.00  -0.00   0.00
 106   1    -0.00  -0.05   0.01     0.00   0.02  -0.00    -0.03  -0.26   0.03
 107   1    -0.07  -0.01   0.00     0.03   0.00  -0.00    -0.40  -0.04   0.00
 108   1     0.21  -0.02   0.00     0.15  -0.02   0.00     0.12  -0.01   0.00
 109   1     0.01  -0.14   0.01     0.01  -0.09   0.01     0.01  -0.07   0.01
 110   1    -0.00  -0.00   0.00     0.00  -0.00   0.00    -0.00   0.00  -0.00
 111   1     0.01   0.14  -0.01    -0.02  -0.21   0.02     0.02   0.18  -0.02
 112   1     0.22   0.02  -0.00    -0.32  -0.03   0.00     0.27   0.03  -0.00
 113   1    -0.29   0.03  -0.00     0.43  -0.05   0.00     0.16  -0.02   0.00
 114   1    -0.02   0.19  -0.02     0.03  -0.27   0.03     0.01  -0.10   0.01
 115   1     0.00   0.00  -0.00    -0.00  -0.00   0.00     0.00  -0.01   0.00
                    337                    338                    339
                        a                      a                      a 
 Frequencies --  3169.0357              3169.1882              3169.5778
 Red. masses --     1.9708                 1.9702                 1.9711
 Frc consts  --     0.0000                 0.0000                 0.0000
 IR Inten    --   225.2689               128.6102              1455.9806
 Raman Activ --     0.0000                 0.0000                 0.0000
 Depolar     --     0.0000                 0.0000                 0.0000
 Atom AN      X      Y      Z        X      Y      Z        X      Y      Z
   1  27    -0.00   0.00  -0.00     0.00  -0.00  -0.00    -0.00   0.00   0.00
   2   6     0.00  -0.06   0.00    -0.00   0.08  -0.00     0.00  -0.07   0.00
   3   6     0.09  -0.01   0.00    -0.13   0.01  -0.00     0.10  -0.01   0.00
   4   6     0.00   0.00  -0.00    -0.00  -0.00   0.00     0.00   0.00  -0.00
   5   6     0.00  -0.00   0.00    -0.00   0.00  -0.00     0.00  -0.00   0.00
   6   6    -0.00   0.00  -0.00    -0.00   0.00  -0.00     0.00  -0.00   0.00
   7   6    -0.07  -0.01   0.00    -0.03  -0.00   0.00     0.06   0.00  -0.00
   8   6    -0.00  -0.05   0.00    -0.00  -0.02   0.00     0.00   0.04  -0.00
   9   6     0.00  -0.00  -0.00     0.00  -0.00  -0.00    -0.00   0.00   0.00
  10   7     0.00   0.00  -0.00     0.00   0.00  -0.00    -0.00  -0.00   0.00
  11   6    -0.00  -0.00   0.00    -0.00  -0.00  -0.00     0.00   0.00   0.00
  12   6     0.00   0.00   0.00    -0.00  -0.00  -0.00     0.00   0.00   0.00
  13   6    -0.00   0.00   0.00     0.00  -0.01  -0.00    -0.00   0.01   0.00
  14   6    -0.00   0.00   0.00     0.01  -0.00  -0.00    -0.01   0.00   0.00
  15   6    -0.00  -0.00   0.00     0.00   0.00  -0.00    -0.00  -0.00  -0.00
  16   7     0.00  -0.00  -0.00    -0.00   0.00   0.00     0.00  -0.00  -0.00
  17   6    -0.00  -0.00  -0.00     0.00   0.00   0.00    -0.00  -0.00  -0.00
  18   6     0.00  -0.00   0.00     0.00  -0.00   0.00    -0.00   0.00  -0.00
  19   6     0.00   0.00   0.00     0.00   0.00   0.00    -0.01  -0.00  -0.00
  20   6     0.00   0.00   0.00     0.00   0.00   0.00    -0.00  -0.01  -0.00
  21   6    -0.00   0.00  -0.00    -0.00  -0.00   0.00     0.00  -0.00  -0.00
  22   7    -0.00   0.00  -0.00    -0.00  -0.00  -0.00     0.00   0.00   0.00
  23   6     0.00  -0.00   0.00    -0.00   0.00  -0.00     0.00  -0.00   0.00
  24   6    -0.00  -0.00  -0.00     0.00   0.00   0.00    -0.00  -0.00  -0.00
  25   7    -0.00   0.00  -0.00     0.00  -0.00   0.00    -0.00   0.00  -0.00
  26   1    -0.02   0.18  -0.01     0.03  -0.26   0.01    -0.02   0.20  -0.01
  27   1    -0.28   0.03  -0.01     0.41  -0.04   0.01    -0.32   0.03  -0.01
  28   1     0.22   0.03  -0.01     0.09   0.01  -0.00    -0.19  -0.02   0.01
  29   1     0.01   0.14  -0.00     0.01   0.06  -0.00    -0.01  -0.13   0.00
  30   1    -0.00   0.00   0.00     0.00   0.00   0.00     0.00  -0.00  -0.00
  31   1     0.00  -0.01  -0.00    -0.00   0.02   0.00     0.00  -0.02  -0.00
  32   1     0.01  -0.00  -0.00    -0.02   0.00   0.00     0.02  -0.00  -0.00
  33   1     0.00   0.00   0.00    -0.00  -0.00  -0.00     0.00   0.00   0.00
  34   1    -0.00  -0.00  -0.00    -0.01  -0.00  -0.00     0.02   0.00   0.00
  35   1    -0.00  -0.00  -0.00    -0.00  -0.01  -0.00     0.00   0.02   0.00
  36   1     0.00   0.00  -0.00    -0.00  -0.01   0.00     0.00   0.01  -0.00
  37  27     0.00  -0.00   0.00     0.00  -0.00   0.00     0.00  -0.00   0.00
  38   6    -0.00   0.07   0.01    -0.01   0.10   0.02    -0.00   0.04   0.01
  39   6    -0.10   0.01   0.00    -0.15   0.01   0.00    -0.06   0.00   0.00
  40   6    -0.00  -0.00  -0.00    -0.00  -0.01  -0.00    -0.00  -0.00  -0.00
  41   6    -0.00   0.00   0.00    -0.00   0.00   0.00    -0.00   0.00   0.00
  42   6    -0.00   0.00   0.00    -0.00   0.00   0.00    -0.00   0.00   0.00
  43   6    -0.02  -0.00  -0.00    -0.07  -0.01  -0.00    -0.04  -0.00  -0.00
  44   6    -0.00  -0.01  -0.00    -0.00  -0.05  -0.01    -0.00  -0.03  -0.01
  45   6     0.00  -0.00  -0.00     0.00  -0.00  -0.00     0.00  -0.00  -0.00
  46   7     0.00   0.00   0.00     0.00   0.00   0.00     0.00   0.00   0.00
  47   6    -0.00  -0.00  -0.00    -0.00  -0.00  -0.00    -0.00  -0.00  -0.00
  48   6    -0.00  -0.00  -0.00    -0.00  -0.00  -0.00    -0.00  -0.00  -0.00
  49   6     0.00  -0.01  -0.00     0.00  -0.01  -0.00     0.00  -0.01  -0.00
  50   6     0.01  -0.00  -0.00     0.01  -0.00  -0.00     0.01  -0.00  -0.00
  51   6     0.00   0.00   0.00     0.00   0.00   0.00     0.00   0.00   0.00
  52   7    -0.00   0.00   0.00    -0.00   0.00   0.00    -0.00   0.00   0.00
  53   6     0.00   0.00  -0.00     0.00   0.00  -0.00     0.00   0.00  -0.00
  54   6     0.00  -0.00  -0.00     0.00  -0.00  -0.00     0.00  -0.00  -0.00
  55   6     0.00   0.00  -0.00     0.01   0.00  -0.00     0.00   0.00  -0.00
  56   6     0.00   0.00   0.00     0.00   0.01   0.00     0.00   0.00   0.00
  57   6    -0.00  -0.00  -0.00    -0.00  -0.00   0.00    -0.00   0.00   0.00
  58   7    -0.00  -0.00  -0.00    -0.00  -0.00  -0.00    -0.00  -0.00  -0.00
  59   6    -0.00   0.00   0.00    -0.00   0.00   0.00    -0.00   0.00   0.00
  60   6     0.00   0.00   0.00     0.00   0.00   0.00     0.00   0.00   0.00
  61   7     0.00  -0.00  -0.00     0.00  -0.00  -0.00     0.00  -0.00  -0.00
  62   1     0.02  -0.21  -0.04     0.03  -0.32  -0.06     0.01  -0.14  -0.03
  63   1     0.33  -0.03  -0.01     0.50  -0.05  -0.02     0.21  -0.02  -0.01
  64   1     0.06   0.01   0.00     0.22   0.02   0.01     0.15   0.02   0.01
  65   1     0.00   0.04   0.01     0.01   0.14   0.03     0.01   0.10   0.02
  66   1     0.00   0.00   0.00    -0.00   0.00   0.00    -0.00   0.00   0.00
  67   1    -0.00   0.02   0.00    -0.00   0.03   0.00    -0.00   0.02   0.00
  68   1    -0.02   0.00   0.00    -0.03   0.00   0.00    -0.02   0.00   0.00
  69   1    -0.00  -0.00   0.00    -0.00  -0.00   0.00    -0.00  -0.00   0.00
  70   1    -0.01  -0.00   0.00    -0.02  -0.00   0.00    -0.01  -0.00   0.00
  71   1    -0.00  -0.01  -0.00    -0.00  -0.03  -0.00    -0.00  -0.02  -0.00
  72   1    -0.00  -0.00  -0.00    -0.00  -0.01  -0.00    -0.00  -0.00  -0.00
  73   6    -0.00  -0.00   0.00     0.00   0.00  -0.00    -0.00  -0.00   0.00
  74   6    -0.00   0.00  -0.00    -0.00  -0.00   0.00     0.00   0.00  -0.00
  75   6     0.00   0.00  -0.00     0.00  -0.00   0.00    -0.00   0.00  -0.00
  76   6    -0.00  -0.00   0.00    -0.00   0.00  -0.00     0.00  -0.00   0.00
  77   6    -0.00   0.00  -0.00    -0.00   0.00   0.00    -0.00   0.00   0.00
  78   6     0.00  -0.00   0.00     0.00  -0.00   0.00     0.00  -0.00   0.00
  79   6    -0.00  -0.00  -0.00    -0.00  -0.00  -0.00    -0.00  -0.00  -0.00
  80   6     0.00   0.00   0.00     0.00   0.00   0.00     0.00   0.00   0.00
  81  27    -0.00   0.00   0.00    -0.00  -0.00  -0.00     0.00   0.00   0.00
  82   6    -0.00  -0.04   0.00     0.00   0.05  -0.01    -0.00  -0.09   0.01
  83   6    -0.06  -0.00   0.00     0.08   0.01  -0.00    -0.13  -0.01   0.00
  84   6    -0.00   0.00  -0.00     0.00  -0.00   0.00    -0.00   0.00  -0.00
  85   6     0.00  -0.00   0.00     0.00   0.00  -0.00    -0.00  -0.00   0.00
  86   6     0.00   0.01  -0.00    -0.00  -0.00   0.00    -0.00  -0.00   0.00
  87   6     0.17  -0.01   0.00    -0.01   0.00  -0.00    -0.09   0.01  -0.00
  88   6     0.00  -0.11   0.01    -0.00   0.01  -0.00    -0.00   0.06  -0.01
  89   6    -0.00  -0.00   0.00     0.00   0.00   0.00     0.00   0.00  -0.00
  90   7    -0.00   0.00  -0.00     0.00  -0.00   0.00     0.00  -0.00   0.00
  91   6     0.00  -0.00   0.00     0.00   0.00  -0.00     0.00   0.00  -0.00
  92   6    -0.00   0.00  -0.00    -0.00   0.00  -0.00    -0.00   0.00  -0.00
  93   6     0.00   0.01  -0.00     0.00   0.05  -0.01     0.00   0.07  -0.01
  94   6     0.02   0.00  -0.00     0.08   0.01  -0.00     0.10   0.01  -0.00
  95   6     0.00  -0.00   0.00     0.00  -0.00   0.00     0.00  -0.00   0.00
  96   7    -0.00  -0.00   0.00    -0.00  -0.00   0.00    -0.00  -0.00   0.00
  97   6    -0.00   0.00  -0.00     0.00   0.00  -0.00     0.00   0.00  -0.00
  98   6    -0.00  -0.00   0.00     0.00   0.00  -0.00     0.00   0.00  -0.00
  99   6    -0.07   0.01  -0.00     0.04  -0.00   0.00     0.08  -0.01   0.00
 100   6    -0.00   0.05  -0.00     0.00  -0.02   0.00     0.00  -0.05   0.01
 101   6     0.00   0.00  -0.00    -0.00  -0.00   0.00    -0.00  -0.00   0.00
 102   7     0.00  -0.00   0.00    -0.00   0.00  -0.00    -0.00   0.00  -0.00
 103   6    -0.00   0.00  -0.00     0.00   0.00  -0.00    -0.00  -0.00   0.00
 104   6     0.00  -0.00   0.00    -0.00   0.00  -0.00     0.00  -0.00   0.00
 105   7     0.00   0.00  -0.00    -0.00  -0.00   0.00     0.00   0.00  -0.00
 106   1     0.01   0.13  -0.01    -0.02  -0.17   0.02     0.03   0.27  -0.03
 107   1     0.20   0.02  -0.00    -0.28  -0.03   0.00     0.42   0.04  -0.00
 108   1    -0.55   0.06  -0.01     0.03  -0.00   0.00     0.30  -0.03   0.00
 109   1    -0.03   0.36  -0.04     0.00  -0.03   0.00     0.02  -0.20   0.02
 110   1     0.00   0.01  -0.00     0.00  -0.00   0.00     0.00  -0.01   0.00
 111   1    -0.00  -0.03   0.00    -0.02  -0.16   0.02    -0.02  -0.21   0.02
 112   1    -0.05  -0.01   0.00    -0.27  -0.03   0.00    -0.31  -0.03   0.00
 113   1     0.22  -0.02   0.00    -0.12   0.01  -0.00    -0.25   0.03  -0.00
 114   1     0.01  -0.15   0.02    -0.01   0.07  -0.01    -0.02   0.17  -0.02
 115   1    -0.00  -0.00   0.00     0.00  -0.00   0.00    -0.00   0.01  -0.00
