      -----------------------------------------------------------      
     |                   =====================                   |     
     |                           x T B                           |     
     |                   =====================                   |     
     |                         S. Grimme                         |     
     |          Mulliken Center for Theoretical Chemistry        |     
     |                    University of Bonn                     |     
      -----------------------------------------------------------      

   * xtb version 6.4.1 (bd6e46d) compiled by 'conda@4901f00b25ba' on 2021-06-10

   xtb is free software: you can redistribute it and/or modify it under
   the terms of the GNU Lesser General Public License as published by
   the Free Software Foundation, either version 3 of the License, or
   (at your option) any later version.
   
   xtb is distributed in the hope that it will be useful,
   but WITHOUT ANY WARRANTY; without even the implied warranty of
   MERCHANTABILITY or FITNESS FOR A PARTICULAR PURPOSE.  See the
   GNU Lesser General Public License for more details.
   
   Cite this work as:
   * C. Bannwarth, E. Caldeweyher, S. Ehlert, A. Hansen, P. Pracht,
     J. Seibert, S. Spicher, S. Grimme, WIREs Comput. Mol. Sci., 2020, 11,
     e01493. DOI: 10.1002/wcms.1493
   
   for GFN2-xTB:
   * C. Bannwarth, S. Ehlert and S. Grimme., J. Chem. Theory Comput., 2019,
     15, 1652-1671. DOI: 10.1021/acs.jctc.8b01176
   for GFN1-xTB:
   * S. Grimme, C. Bannwarth, P. Shushkov, J. Chem. Theory Comput., 2017,
     13, 1989-2009. DOI: 10.1021/acs.jctc.7b00118
   for GFN0-xTB:
   * P. Pracht, E. Caldeweyher, S. Ehlert, S. Grimme, ChemRxiv, 2019, preprint.
     DOI: 10.26434/chemrxiv.8326202.v1
   for GFN-FF:
   * S. Spicher and S. Grimme, Angew. Chem. Int. Ed., 2020, 59, 15665-15673.
     DOI: 10.1002/anie.202004239
   
   for DFT-D4:
   * E. Caldeweyher, C. Bannwarth and S. Grimme, J. Chem. Phys., 2017,
     147, 034112. DOI: 10.1063/1.4993215
   * E. Caldeweyher, S. Ehlert, A. Hansen, H. Neugebauer, S. Spicher,
     C. Bannwarth and S. Grimme, J. Chem. Phys., 2019, 150, 154122.
     DOI: 10.1063/1.5090222
   * E. Caldeweyher, J.-M. Mewes, S. Ehlert and S. Grimme, Phys. Chem. Chem. Phys.
     2020, 22, 8499-8512. DOI: 10.1039/D0CP00502A
   
   for sTDA-xTB:
   * S. Grimme and C. Bannwarth, J. Chem. Phys., 2016, 145, 054103.
     DOI: 10.1063/1.4959605
   
   in the mass-spec context:
   * V. Asgeirsson, C. Bauer and S. Grimme, Chem. Sci., 2017, 8, 4879.
     DOI: 10.1039/c7sc00601b
   * J. Koopman and S. Grimme, ACS Omega 2019, 4, 12, 15120-15133.
     DOI: 10.1021/acsomega.9b02011
   
   for metadynamics refer to:
   * S. Grimme, J. Chem. Theory Comput., 2019, 155, 2847-2862
     DOI: 10.1021/acs.jctc.9b00143
   
   for SPH calculations refer to:
   * S. Spicher and S. Grimme, J. Chem. Theory Comput., 2021, 17, 1701-1714
     DOI: 10.1021/acs.jctc.0c01306
   
   with help from (in alphabetical order)
   P. Atkinson, C. Bannwarth, F. Bohle, G. Brandenburg, E. Caldeweyher
   M. Checinski, S. Dohm, S. Ehlert, S. Ehrlich, I. Gerasimov, J. Koopman
   C. Lavigne, S. Lehtola, F. März, M. Müller, F. Musil, H. Neugebauer
   J. Pisarek, C. Plett, P. Pracht, J. Seibert, P. Shushkov, S. Spicher
   M. Stahn, M. Steiner, T. Strunk, J. Stückrath, T. Rose, and J. Unsleber
   
 * started run on 2021/11/19 at 11:27:17.415     

           -------------------------------------------------
          |                Calculation Setup                |
           -------------------------------------------------

          program call               : /home/jeff/miniconda3/bin/xtb input_structure_1.xyz --gfn 2 --ohess normal --parallel 1 --etemp 300 --chrg 0 --uhf 0 -I det_control.in
          hostname                   : jelfscompute1
          coordinate file            : input_structure_1.xyz
          omp threads                :                     1
          number of atoms            :                   115
          number of electrons        :                   391
          charge                     :                     0
          spin                       :                   0.5
          first test random number   :      0.12315843110603

   ID    Z sym.   atoms
    1   27 Co     1, 37, 81
    2    6 C      2-9, 11-15, 17-21, 23, 24, 38-45, 47-51, 53-57, 59, 60,
                  73-80, 82-89, 91-95, 97-101, 103, 104
    3    7 N      10, 16, 22, 25, 46, 52, 58, 61, 90, 96, 102, 105
    4    1 H      26-36, 62-72, 106-115

molecular fragmentation (1/2 indicates fragments):
111111111111111111111111111111111111222222222222222222222222222222222222
2222222222222222222222222222222222222222222
# atoms in fragment 1/2:    36    79
 fragment masses (1/2) :      366.26      827.60
CMA distance (Bohr)    :  40.754
constraining FC (au)   :  0.0500

           -------------------------------------------------
          |                 G F N 2 - x T B                 |
           -------------------------------------------------

        Reference                      10.1021/acs.jctc.8b01176
      * Hamiltonian:
        H0-scaling (s, p, d)           1.850000    2.230000    2.230000
        zeta-weighting                 0.500000
      * Dispersion:
        s8                             2.700000
        a1                             0.520000
        a2                             5.000000
        s9                             5.000000
      * Repulsion:
        kExp                           1.500000    1.000000
        rExp                           1.000000
      * Coulomb:
        alpha                          2.000000
        third order                    shell-resolved
        anisotropic                    true
        a3                             3.000000
        a5                             4.000000
        cn-shift                       1.200000
        cn-exp                         4.000000
        max-rad                        5.000000


          ...................................................
          :                      SETUP                      :
          :.................................................:
          :  # basis functions                 382          :
          :  # atomic orbitals                 379          :
          :  # shells                          201          :
          :  # electrons                       391          :
          :  max. iterations                   250          :
          :  Hamiltonian                  GFN2-xTB          :
          :  restarted?                      false          :
          :  GBSA solvation                  false          :
          :  PC potential                    false          :
          :  electronic temp.          300.0000000     K    :
          :  accuracy                    1.0000000          :
          :  -> integral cutoff          0.2500000E+02      :
          :  -> integral neglect         0.1000000E-07      :
          :  -> SCF convergence          0.1000000E-05 Eh   :
          :  -> wf. convergence          0.1000000E-03 e    :
          :  Broyden damping             0.4000000          :
          ...................................................

 iter      E             dE          RMSdq      gap      omega  full diag
   1   -208.9507760 -0.208951E+03  0.880E+00    0.10       0.0  T
   2   -185.0098226  0.239410E+02  0.133E+01    0.93       1.0  T
   3   -196.7167170 -0.117069E+02  0.807E+00    0.25       1.0  T
   4   -195.6022274  0.111449E+01  0.832E+00    0.00       1.0  T
   5   -199.7294160 -0.412719E+01  0.590E+00    0.11       1.0  T
   6   -177.3140602  0.224154E+02  0.813E+00    0.12       1.0  T
   7   -204.5099483 -0.271959E+02  0.502E+00    0.05       1.0  T
   8   -205.6339392 -0.112399E+01  0.509E+00    0.02       1.0  T
   9   -209.4403641 -0.380642E+01  0.371E+00    0.20       1.0  T
  10   -209.1890788  0.251285E+00  0.358E+00    0.09       1.0  T
  11   -209.8071238 -0.618045E+00  0.320E+00    0.22       1.0  T
  12   -209.8516336 -0.445098E-01  0.315E+00    0.22       1.0  T
  13   -209.8293123  0.223213E-01  0.330E+00    0.06       1.0  T
  14   -209.8390782 -0.976589E-02  0.331E+00    0.09       1.0  T
  15   -210.0123176 -0.173239E+00  0.289E+00    0.28       1.0  T
  16   -210.0900407 -0.777231E-01  0.258E+00    0.23       1.0  T
  17   -209.7727531  0.317288E+00  0.221E+00    0.01       1.0  T
  18   -210.2343720 -0.461619E+00  0.185E+00    0.10       1.0  T
  19   -208.9238416  0.131053E+01  0.315E+00    0.03       1.0  T
  20   -209.7046839 -0.780842E+00  0.248E+00    0.03       1.0  T
  21   -208.2711476  0.143354E+01  0.348E+00    0.00       1.0  T
  22   -208.1467726  0.124375E+00  0.357E+00    0.01       1.0  T
  23   -206.6838432  0.146293E+01  0.446E+00    0.04       1.0  T
  24   -205.8145323  0.869311E+00  0.494E+00    0.04       1.0  T
  25   -205.9575552 -0.143023E+00  0.474E+00    0.04       1.0  T
  26   -208.7086616 -0.275111E+01  0.329E+00    0.03       1.0  T
  27   -208.8937033 -0.185042E+00  0.301E+00    0.03       1.0  T
  28   -209.0605357 -0.166832E+00  0.286E+00    0.03       1.0  T
  29   -209.2383104 -0.177775E+00  0.270E+00    0.03       1.0  T
  30   -209.8796985 -0.641388E+00  0.244E+00    0.02       1.0  T
  31   -210.3689612 -0.489263E+00  0.157E+00    0.01       1.0  T
  32   -210.3676430  0.131824E-02  0.159E+00    0.01       1.0  T
  33   -209.9332130  0.434430E+00  0.225E+00    0.02       1.0  T
  34   -210.4271725 -0.493959E+00  0.140E+00    0.02       1.0  T
  35   -210.5831597 -0.155987E+00  0.931E-01    0.02       1.0  T
  36   -210.5951748 -0.120150E-01  0.933E-01    0.02       1.0  T
  37   -210.5274354  0.677393E-01  0.114E+00    0.02       1.0  T
  38   -210.5753682 -0.479327E-01  0.796E-01    0.01       1.0  T
  39   -210.6682837 -0.929155E-01  0.571E-01    0.02       1.0  T
  40   -210.3176273  0.350656E+00  0.143E+00    0.02       1.0  T
  41   -210.0804482  0.237179E+00  0.182E+00    0.02       1.0  T
  42   -210.2226904 -0.142242E+00  0.160E+00    0.02       1.0  T
  43   -210.1361617  0.865286E-01  0.173E+00    0.02       1.0  T
  44   -209.9605779  0.175584E+00  0.200E+00    0.02       1.0  T
  45   -210.2106139 -0.250036E+00  0.162E+00    0.02       1.0  T
  46   -210.3729223 -0.162308E+00  0.135E+00    0.02       1.0  T
  47   -210.6299239 -0.257002E+00  0.671E-01    0.00       1.0  T
  48   -210.4120531  0.217871E+00  0.128E+00    0.02       1.0  T
  49   -210.5882780 -0.176225E+00  0.822E-01    0.01       1.0  T
  50   -210.6319861 -0.437081E-01  0.636E-01    0.01       1.0  T
  51   -210.6099739  0.220122E-01  0.727E-01    0.01       1.0  T
  52   -210.6944329 -0.844590E-01  0.265E-01    0.02       1.0  T
  53   -210.7005495 -0.611657E-02  0.172E-01    0.03       1.0  T
  54   -210.6861689  0.143806E-01  0.326E-01    0.01       1.0  T
  55   -210.6316257  0.545432E-01  0.646E-01    0.01       1.0  T
  56   -210.6819270 -0.503013E-01  0.360E-01    0.01       1.0  T
  57   -210.6857567 -0.382972E-02  0.331E-01    0.01       1.0  T
  58   -210.6954184 -0.966172E-02  0.232E-01    0.01       1.0  T
  59   -210.6993130 -0.389458E-02  0.181E-01    0.02       1.0  T
  60   -210.6983983  0.914709E-03  0.195E-01    0.02       1.0  T
  61   -210.7009821 -0.258374E-02  0.157E-01    0.02       1.0  T
  62   -210.7014889 -0.506817E-03  0.149E-01    0.02       1.0  T
  63   -210.7035148 -0.202588E-02  0.105E-01    0.02       1.0  T
  64   -210.7048490 -0.133427E-02  0.588E-02    0.02       1.0  T
  65   -210.7048330  0.159797E-04  0.577E-02    0.02       1.0  T
  66   -210.7051843 -0.351280E-03  0.340E-02    0.02       1.0  T
  67   -210.7051577  0.265758E-04  0.337E-02    0.02       1.0  T
  68   -210.7051513  0.644843E-05  0.334E-02    0.02       1.0  T
  69   -210.7052328 -0.815009E-04  0.273E-02    0.02       1.0  T
  70   -210.7053082 -0.754334E-04  0.190E-02    0.02       1.0  T
  71   -210.7053346 -0.264041E-04  0.151E-02    0.02       1.0  T
  72   -210.7053439 -0.931690E-05  0.128E-02    0.02       1.0  T
  73   -210.7053592 -0.152027E-04  0.886E-03    0.02       1.1  T
  74   -210.7053631 -0.389940E-05  0.698E-03    0.02       1.3  T
  75   -210.7053665 -0.341419E-05  0.528E-03    0.02       1.8  T
  76   -210.7053693 -0.281298E-05  0.340E-03    0.02       2.7  T
  77   -210.7053701 -0.845581E-06  0.250E-03    0.02       3.7  T
  78   -210.7053709 -0.785349E-06  0.118E-03    0.02       7.9  T
  79   -210.7053710 -0.125206E-06  0.830E-04    0.02      11.2  T
  80   -210.7053711 -0.718357E-07  0.398E-04    0.02      23.4  T

   *** convergence criteria satisfied after 80 iterations ***

         #    Occupation            Energy/Eh            Energy/eV
      -------------------------------------------------------------
         1        2.0000           -0.6828832             -18.5822
       ...           ...                  ...                  ...
       190        1.8984           -0.3479203              -9.4674
       191        1.7860           -0.3471453              -9.4463
       192        1.7676           -0.3470556              -9.4439
       193        1.7646           -0.3470416              -9.4435
       194        1.6658           -0.3466452              -9.4327
       195        1.5748           -0.3463548              -9.4248
       196        1.5689           -0.3463378              -9.4243 (HOMO)
       197        1.2034           -0.3454691              -9.4007 (LUMO)
       198        0.0002           -0.3360359              -9.1440
       199        0.0001           -0.3358907              -9.1401
       200                         -0.3173354              -8.6351
       201                         -0.3173002              -8.6342
       ...                                ...                  ...
       379                          1.5680571              42.6690
      -------------------------------------------------------------
                  HL-Gap            0.0008687 Eh            0.0236 eV
             Fermi-level           -0.3450581 Eh           -9.3895 eV

 SCC (total)                   0 d,  0 h,  0 min,  2.540 sec
 SCC setup                      ...        0 min,  0.002 sec (  0.098%)
 Dispersion                     ...        0 min,  0.005 sec (  0.203%)
 classical contributions        ...        0 min,  0.001 sec (  0.029%)
 integral evaluation            ...        0 min,  0.047 sec (  1.850%)
 iterations                     ...        0 min,  2.338 sec ( 92.068%)
 molecular gradient             ...        0 min,  0.143 sec (  5.627%)
 printout                       ...        0 min,  0.003 sec (  0.124%)

         :::::::::::::::::::::::::::::::::::::::::::::::::::::
         ::                     SUMMARY                     ::
         :::::::::::::::::::::::::::::::::::::::::::::::::::::
         :: total energy            -206.996213422859 Eh    ::
         :: gradient norm              0.639165871726 Eh/a0 ::
         :: HOMO-LUMO gap              0.023638660692 eV    ::
         ::.................................................::
         :: SCC energy              -210.705371105250 Eh    ::
         :: -> isotropic ES            0.076735431872 Eh    ::
         :: -> anisotropic ES          0.025135030546 Eh    ::
         :: -> anisotropic XC          0.139762434637 Eh    ::
         :: -> dispersion             -0.171734398148 Eh    ::
         :: repulsion energy           3.708612981593 Eh    ::
         :: add. restraining           0.000000000000 Eh    ::
         :: total charge               0.000000000006 e     ::
         :::::::::::::::::::::::::::::::::::::::::::::::::::::

      ----------------------------------------------------------- 
     |                   =====================                   |
     |                        A N C O P T                        |
     |                   =====================                   |
     |               Approximate Normal Coordinate               |
     |                Rational Function Optimizer                |
      ----------------------------------------------------------- 

          ...................................................
          :                      SETUP                      :
          :.................................................:
          :   optimization level            normal          :
          :   max. optcycles                   345          :
          :   ANC micro-cycles                  20          :
          :   degrees of freedom               339          :
          :.................................................:
          :   RF solver                   davidson          :
          :   write xtbopt.log                true          :
          :   linear?                        false          :
          :   energy convergence         0.5000000E-05 Eh   :
          :   grad. convergence          0.1000000E-02 Eh/α :
          :   maximium RF displ.         1.0000000          :
          :   Hlow (freq-cutoff)         0.1000000E-01      :
          :   Hmax (freq-cutoff)         5.0000000          :
          :   S6 in model hess.         20.0000000          :
          ...................................................

generating ANC from model Hessian ...
Using Lindh-Hessian (1995)
 Shifting diagonal of input Hessian by    1.0125410391572559E-002
 Lowest  eigenvalues of input Hessian
    0.010000    0.010040    0.010095    0.010104    0.010105    0.010111
    0.010116    0.010118    0.000000    0.000000    0.000000    0.000000
    0.000000    0.000000    0.010136    0.010139    0.010144    0.010158
 Highest eigenvalues
    2.203998    2.204000    2.239930    2.250064    2.785521    2.844619


........................................................................
.............................. CYCLE    1 ..............................
........................................................................
   1   -210.7053710 -0.210705E+03  0.730E-04    0.02       0.0  T
   2   -210.7046876  0.683408E-03  0.614E-02    0.02       1.0  T
   3   -210.7053697 -0.682030E-03  0.283E-03    0.02       3.3  T
   4   -210.7053061  0.636024E-04  0.186E-02    0.02       1.0  T
   5   -210.7053621 -0.560821E-04  0.664E-03    0.02       1.4  T
   6   -210.7053657 -0.355600E-05  0.520E-03    0.02       1.8  T
   7   -210.7053709 -0.516221E-05  0.122E-03    0.02       7.6  T
   8   -210.7053710 -0.996855E-07  0.873E-04    0.02      10.7  T
   9   -210.7053709  0.100326E-06  0.118E-03    0.02       7.9  T
  10   -210.7053711 -0.228029E-06  0.424E-04    0.02      22.0  T
     SCC iter.                  ...        0 min,  0.286 sec
     gradient                   ...        0 min,  0.143 sec
 * total energy  :  -206.9962134 Eh     change        0.2660647E-07 Eh
   gradient norm :     0.6391669 Eh/α   predicted     0.0000000E+00 (-100.00%)
   displ. norm   :     0.5728634 α      lambda       -0.2710209E+00
   maximum displ.:     0.1760728 α      in ANC's #117, #116, #118, ...

........................................................................
.............................. CYCLE    2 ..............................
........................................................................
   1   -210.6901750 -0.210690E+03  0.552E-01    0.02       0.0  T
   2   -209.0810172  0.160916E+01  0.258E+00    0.18       1.0  T
   3   -209.7481359 -0.667119E+00  0.228E+00    0.03       1.0  T
   4   -210.1362037 -0.388068E+00  0.176E+00    0.02       1.0  T
   5   -210.1069510  0.292528E-01  0.185E+00    0.03       1.0  T
   6   -210.2097354 -0.102784E+00  0.162E+00    0.01       1.0  T
   7   -210.5541477 -0.344412E+00  0.911E-01    0.01       1.0  T
   8   -210.3379075  0.216240E+00  0.141E+00    0.03       1.0  T
   9   -210.4917430 -0.153836E+00  0.106E+00    0.02       1.0  T
  10   -210.5855434 -0.938003E-01  0.856E-01    0.01       1.0  T
  11   -210.6946624 -0.109119E+00  0.367E-01    0.03       1.0  T
  12   -210.6288366  0.658259E-01  0.693E-01    0.01       1.0  T
  13   -210.7105949 -0.817584E-01  0.214E-01    0.01       1.0  T
  14   -210.7129546 -0.235968E-02  0.175E-01    0.02       1.0  T
  15   -210.6521680  0.607866E-01  0.593E-01    0.00       1.0  T
  16   -210.6958820 -0.437139E-01  0.355E-01    0.01       1.0  T
  17   -210.7067223 -0.108404E-01  0.257E-01    0.01       1.0  T
  18   -210.7170608 -0.103385E-01  0.973E-02    0.02       1.0  T
  19   -210.7138171  0.324372E-02  0.161E-01    0.03       1.0  T
  20   -210.7171692 -0.335211E-02  0.912E-02    0.03       1.0  T
  21   -210.7181979 -0.102871E-02  0.548E-02    0.02       1.0  T
  22   -210.7184821 -0.284197E-03  0.367E-02    0.02       1.0  T
  23   -210.7187227 -0.240637E-03  0.115E-02    0.02       1.0  T
  24   -210.7187109  0.118154E-04  0.137E-02    0.02       1.0  T
  25   -210.7187071  0.376624E-05  0.142E-02    0.02       1.0  T
  26   -210.7187408 -0.336517E-04  0.501E-03    0.02       1.9  T
  27   -210.7187445 -0.366854E-05  0.231E-03    0.02       4.0  T
  28   -210.7187452 -0.695386E-06  0.124E-03    0.02       7.5  T
  29   -210.7187449  0.302196E-06  0.171E-03    0.02       5.5  T
  30   -210.7187450 -0.143656E-06  0.145E-03    0.02       6.4  T
  31   -210.7187453 -0.326799E-06  0.549E-04    0.02      17.0  T
  32   -210.7187454 -0.438469E-07  0.165E-04    0.02      56.6  T
     SCC iter.                  ...        0 min,  0.915 sec
     gradient                   ...        0 min,  0.142 sec
 * total energy  :  -207.2110457 Eh     change       -0.2148323E+00 Eh
   gradient norm :     0.3446470 Eh/α   predicted    -0.1800684E+00 ( -16.18%)
   displ. norm   :     0.6774107 α      lambda       -0.1752661E+00
   maximum displ.:     0.2323051 α      in ANC's #117, #116, #118, ...

........................................................................
.............................. CYCLE    3 ..............................
........................................................................
   1   -210.7356053 -0.210736E+03  0.669E-01    0.01       0.0  T
   2   -207.5777205  0.315788E+01  0.332E+00    0.03       1.0  T
   3   -209.6004610 -0.202274E+01  0.249E+00    0.03       1.0  T
   4   -209.2286290  0.371832E+00  0.289E+00    0.03       1.0  T
   5   -209.9982745 -0.769646E+00  0.215E+00    0.02       1.0  T
   6   -210.2779859 -0.279711E+00  0.161E+00    0.00       1.0  T
   7   -210.5988528 -0.320867E+00  0.106E+00    0.03       1.0  T
   8   -210.7200282 -0.121175E+00  0.598E-01    0.01       1.0  T
   9   -210.7134220  0.660616E-02  0.630E-01    0.02       1.0  T
  10   -210.7139429 -0.520866E-03  0.589E-01    0.00       1.0  T
  11   -210.5896652  0.124278E+00  0.988E-01    0.01       1.0  T
  12   -210.7195804 -0.129915E+00  0.618E-01    0.03       1.0  T
  13   -210.6479065  0.716739E-01  0.879E-01    0.01       1.0  T
  14   -210.7318779 -0.839714E-01  0.564E-01    0.03       1.0  T
  15   -210.7435758 -0.116979E-01  0.497E-01    0.03       1.0  T
  16   -210.7484367 -0.486088E-02  0.454E-01    0.01       1.0  T
  17   -210.7528330 -0.439631E-02  0.425E-01    0.01       1.0  T
  18   -210.7752519 -0.224190E-01  0.227E-01    0.02       1.0  T
  19   -210.7776980 -0.244607E-02  0.161E-01    0.02       1.0  T
  20   -210.7763197  0.137832E-02  0.187E-01    0.01       1.0  T
  21   -210.7786386 -0.231893E-02  0.152E-01    0.02       1.0  T
  22   -210.7794660 -0.827377E-03  0.134E-01    0.01       1.0  T
  23   -210.7830857 -0.361972E-02  0.281E-02    0.01       1.0  T
  24   -210.7831008 -0.150666E-04  0.260E-02    0.01       1.0  T
  25   -210.7830399  0.608668E-04  0.317E-02    0.01       1.0  T
  26   -210.7832325 -0.192637E-03  0.419E-03    0.01       2.2  T
  27   -210.7832244  0.815205E-05  0.790E-03    0.01       1.2  T
  28   -210.7832300 -0.563534E-05  0.530E-03    0.01       1.8  T
  29   -210.7832326 -0.257983E-05  0.391E-03    0.01       2.4  T
  30   -210.7832353 -0.266283E-05  0.103E-03    0.01       9.1  T
  31   -210.7832352  0.864678E-07  0.124E-03    0.01       7.5  T
  32   -210.7832355 -0.274832E-06  0.262E-04    0.01      35.6  T
  33   -210.7832354  0.420472E-07  0.536E-04    0.01      17.4  T
     SCC iter.                  ...        0 min,  0.945 sec
     gradient                   ...        0 min,  0.142 sec
 * total energy  :  -207.3436584 Eh     change       -0.1326127E+00 Eh
   gradient norm :     0.1443250 Eh/α   predicted    -0.1278466E+00 (  -3.59%)
   displ. norm   :     0.7394596 α      lambda       -0.9184953E-01
   maximum displ.:     0.2521040 α      in ANC's #117, #116, #61, ...

........................................................................
.............................. CYCLE    4 ..............................
........................................................................
   1   -210.8089307 -0.210809E+03  0.696E-01    0.01       0.0  T
   2   -207.1227047  0.368623E+01  0.352E+00    0.04       1.0  T
   3   -210.0180443 -0.289534E+01  0.210E+00    0.02       1.0  T
   4   -210.5032410 -0.485197E+00  0.145E+00    0.00       1.0  T
   5   -209.2881988  0.121504E+01  0.289E+00    0.02       1.0  T
   6   -210.6251947 -0.133700E+01  0.111E+00    0.02       1.0  T
   7   -209.9600114  0.665183E+00  0.210E+00    0.02       1.0  T
   8   -210.5625422 -0.602531E+00  0.129E+00    0.03       1.0  T
   9   -210.7917585 -0.229216E+00  0.651E-01    0.04       1.0  T
  10   -210.6773365  0.114422E+00  0.959E-01    0.00       1.0  T
  11   -210.7747198 -0.973833E-01  0.715E-01    0.04       1.0  T
  12   -210.7009392  0.737806E-01  0.928E-01    0.03       1.0  T
  13   -210.7966580 -0.957188E-01  0.607E-01    0.04       1.0  T
  14   -210.7979838 -0.132579E-02  0.615E-01    0.04       1.0  T
  15   -210.8127172 -0.147333E-01  0.528E-01    0.03       1.0  T
  16   -210.8348547 -0.221375E-01  0.418E-01    0.04       1.0  T
  17   -210.8486239 -0.137692E-01  0.324E-01    0.04       1.0  T
  18   -210.8508465 -0.222264E-02  0.302E-01    0.04       1.0  T
  19   -210.8418813  0.896523E-02  0.361E-01    0.04       1.0  T
  20   -210.8552937 -0.134125E-01  0.241E-01    0.03       1.0  T
  21   -210.8613781 -0.608440E-02  0.180E-01    0.03       1.0  T
  22   -210.8655595 -0.418135E-02  0.935E-02    0.03       1.0  T
  23   -210.8661430 -0.583487E-03  0.666E-02    0.02       1.0  T
  24   -210.8663115 -0.168507E-03  0.591E-02    0.02       1.0  T
  25   -210.8664430 -0.131506E-03  0.516E-02    0.02       1.0  T
  26   -210.8664138  0.291939E-04  0.528E-02    0.02       1.0  T
  27   -210.8669045 -0.490724E-03  0.932E-03    0.02       1.0  T
  28   -210.8668805  0.239866E-04  0.144E-02    0.02       1.0  T
  29   -210.8668926 -0.121202E-04  0.122E-02    0.02       1.0  T
  30   -210.8668884  0.421512E-05  0.129E-02    0.02       1.0  T
  31   -210.8668719  0.164913E-04  0.156E-02    0.02       1.0  T
  32   -210.8668952 -0.232505E-04  0.105E-02    0.02       1.0  T
  33   -210.8669122 -0.169823E-04  0.390E-03    0.02       2.4  T
  34   -210.8669148 -0.261293E-05  0.674E-04    0.02      13.8  T
  35   -210.8669147  0.517588E-07  0.696E-04    0.02      13.4  T
  36   -210.8669148 -0.409912E-07  0.456E-04    0.02      20.4  T
     SCC iter.                  ...        0 min,  1.027 sec
     gradient                   ...        0 min,  0.143 sec
 * total energy  :  -207.4184569 Eh     change       -0.7479845E-01 Eh
   gradient norm :     0.0915586 Eh/α   predicted    -0.7103661E-01 (  -5.03%)
   displ. norm   :     0.7824864 α      lambda       -0.6316742E-01
   maximum displ.:     0.2538452 α      in ANC's #61, #62, #117, ...

........................................................................
.............................. CYCLE    5 ..............................
........................................................................
   1   -210.8776199 -0.210878E+03  0.725E-01    0.01       0.0  T
   2   -207.3870945  0.349053E+01  0.345E+00    0.05       1.0  T
   3   -210.6288088 -0.324171E+01  0.143E+00    0.14       1.0  T
   4   -209.3548255  0.127398E+01  0.292E+00    0.02       1.0  T
   5   -209.3807910 -0.259655E-01  0.291E+00    0.02       1.0  T
   6   -210.4585755 -0.107778E+01  0.170E+00    0.01       1.0  T
   7   -210.7755638 -0.316988E+00  0.101E+00    0.06       1.0  T
   8   -210.6923088  0.832550E-01  0.115E+00    0.04       1.0  T
   9   -210.8355281 -0.143219E+00  0.705E-01    0.07       1.0  T
  10   -210.4722012  0.363327E+00  0.156E+00    0.01       1.0  T
  11   -210.9286960 -0.456495E+00  0.350E-01    0.06       1.0  T
  12   -210.8845121  0.441839E-01  0.595E-01    0.05       1.0  T
  13   -210.9139141 -0.294020E-01  0.414E-01    0.06       1.0  T
  14   -210.9251064 -0.111923E-01  0.358E-01    0.06       1.0  T
  15   -210.9266925 -0.158611E-02  0.278E-01    0.05       1.0  T
  16   -210.9098064  0.168861E-01  0.397E-01    0.04       1.0  T
  17   -210.9228183 -0.130119E-01  0.306E-01    0.05       1.0  T
  18   -210.9305559 -0.773764E-02  0.233E-01    0.04       1.0  T
  19   -210.9366679 -0.611199E-02  0.145E-01    0.04       1.0  T
  20   -210.9381464 -0.147850E-02  0.115E-01    0.04       1.0  T
  21   -210.9389984 -0.851942E-03  0.938E-02    0.04       1.0  T
  22   -210.9396465 -0.648164E-03  0.561E-02    0.04       1.0  T
  23   -210.9394911  0.155440E-03  0.578E-02    0.03       1.0  T
  24   -210.9397354 -0.244262E-03  0.464E-02    0.03       1.0  T
  25   -210.9401294 -0.394048E-03  0.127E-02    0.03       1.0  T
  26   -210.9401167  0.127580E-04  0.139E-02    0.03       1.0  T
  27   -210.9401281 -0.114579E-04  0.119E-02    0.03       1.0  T
  28   -210.9401358 -0.771636E-05  0.979E-03    0.03       1.0  T
  29   -210.9401477 -0.119031E-04  0.513E-03    0.03       1.8  T
  30   -210.9401478 -0.906264E-07  0.502E-03    0.03       1.9  T
  31   -210.9401505 -0.266682E-05  0.322E-03    0.03       2.9  T
  32   -210.9401510 -0.560797E-06  0.201E-03    0.03       4.6  T
  33   -210.9401503  0.783589E-06  0.271E-03    0.03       3.4  T
  34   -210.9401507 -0.480294E-06  0.211E-03    0.03       4.4  T
  35   -210.9401512 -0.475278E-06  0.125E-03    0.03       7.5  T
  36   -210.9401512  0.669919E-07  0.135E-03    0.03       6.9  T
  37   -210.9401513 -0.144679E-06  0.101E-03    0.03       9.2  T
  38   -210.9401514 -0.139224E-06  0.482E-04    0.03      19.4  T
  39   -210.9401515 -0.360281E-07  0.163E-04    0.03      57.3  T
     SCC iter.                  ...        0 min,  1.111 sec
     gradient                   ...        0 min,  0.143 sec
 * total energy  :  -207.4716675 Eh     change       -0.5321065E-01 Eh
   gradient norm :     0.0774206 Eh/α   predicted    -0.5092277E-01 (  -4.30%)
   displ. norm   :     0.7893445 α      lambda       -0.4605016E-01
   maximum displ.:     0.2919899 α      in ANC's #61, #62, #60, ...

........................................................................
.............................. CYCLE    6 ..............................
........................................................................
   1   -210.9558893 -0.210956E+03  0.649E-01    0.01       0.0  T
   2   -208.0390588  0.291683E+01  0.322E+00    0.12       1.0  T
   3   -210.5954968 -0.255644E+01  0.156E+00    0.07       1.0  T
   4   -210.2059121  0.389585E+00  0.202E+00    0.01       1.0  T
   5   -210.4916340 -0.285722E+00  0.169E+00    0.02       1.0  T
   6   -210.8870596 -0.395426E+00  0.833E-01    0.01       1.0  T
   7   -210.7700313  0.117028E+00  0.105E+00    0.08       1.0  T
   8   -210.9072453 -0.137214E+00  0.744E-01    0.09       1.0  T
   9   -210.8729253  0.343200E-01  0.726E-01    0.06       1.0  T
  10   -210.4563446  0.416581E+00  0.168E+00    0.01       1.0  T
  11   -210.8842917 -0.427947E+00  0.800E-01    0.04       1.0  T
  12   -210.8503979  0.338938E-01  0.928E-01    0.03       1.0  T
  13   -210.9753955 -0.124998E+00  0.407E-01    0.04       1.0  T
  14   -210.9781811 -0.278558E-02  0.394E-01    0.05       1.0  T
  15   -210.9880027 -0.982165E-02  0.333E-01    0.05       1.0  T
  16   -210.9893318 -0.132902E-02  0.315E-01    0.05       1.0  T
  17   -210.9965006 -0.716888E-02  0.238E-01    0.05       1.0  T
  18   -210.9926041  0.389649E-02  0.281E-01    0.05       1.0  T
  19   -210.9971240 -0.451989E-02  0.225E-01    0.05       1.0  T
  20   -210.9979680 -0.843973E-03  0.211E-01    0.05       1.0  T
  21   -210.9994965 -0.152847E-02  0.178E-01    0.04       1.0  T
  22   -211.0014386 -0.194210E-02  0.136E-01    0.04       1.0  T
  23   -211.0023898 -0.951181E-03  0.114E-01    0.04       1.0  T
  24   -211.0039493 -0.155957E-02  0.721E-02    0.04       1.0  T
  25   -211.0038749  0.744179E-04  0.724E-02    0.04       1.0  T
  26   -211.0038183  0.566543E-04  0.706E-02    0.04       1.0  T
  27   -211.0039990 -0.180757E-03  0.614E-02    0.04       1.0  T
  28   -211.0045040 -0.505037E-03  0.325E-02    0.04       1.0  T
  29   -211.0045831 -0.790448E-04  0.243E-02    0.04       1.0  T
  30   -211.0046815 -0.984522E-04  0.986E-03    0.04       1.0  T
  31   -211.0047002 -0.186681E-04  0.299E-03    0.04       3.1  T
  32   -211.0046982  0.204289E-05  0.430E-03    0.04       2.2  T
  33   -211.0046977  0.508502E-06  0.457E-03    0.04       2.0  T
  34   -211.0047004 -0.275384E-05  0.244E-03    0.04       3.8  T
  35   -211.0047015 -0.103791E-05  0.613E-04    0.04      15.2  T
  36   -211.0047015 -0.373826E-07  0.409E-04    0.04      22.8  T
  37   -211.0047015 -0.128573E-07  0.281E-04    0.04      33.2  T
     SCC iter.                  ...        0 min,  1.058 sec
     gradient                   ...        0 min,  0.144 sec
 * total energy  :  -207.5102654 Eh     change       -0.3859790E-01 Eh
   gradient norm :     0.0579404 Eh/α   predicted    -0.3737120E-01 (  -3.18%)
   displ. norm   :     0.7669390 α      lambda       -0.3167589E-01
   maximum displ.:     0.2946966 α      in ANC's #61, #62, #60, ...

........................................................................
.............................. CYCLE    7 ..............................
........................................................................
   1   -211.0299407 -0.211030E+03  0.510E-01    0.01       0.0  T
   2   -208.9787105  0.205123E+01  0.275E+00    0.21       1.0  T
   3   -210.5507541 -0.157204E+01  0.175E+00    0.01       1.0  T
   4   -210.4354936  0.115260E+00  0.181E+00    0.02       1.0  T
   5   -210.4749039 -0.394103E-01  0.191E+00    0.01       1.0  T
   6   -210.8957603 -0.420856E+00  0.103E+00    0.05       1.0  T
   7   -210.9516953 -0.559350E-01  0.668E-01    0.04       1.0  T
   8   -210.9323241  0.193712E-01  0.874E-01    0.01       1.0  T
   9   -210.7819277  0.150396E+00  0.114E+00    0.03       1.0  T
  10   -210.9468693 -0.164942E+00  0.760E-01    0.05       1.0  T
  11   -210.7093566  0.237513E+00  0.146E+00    0.02       1.0  T
  12   -211.0065345 -0.297178E+00  0.595E-01    0.05       1.0  T
  13   -211.0391539 -0.326194E-01  0.360E-01    0.05       1.0  T
  14   -211.0501252 -0.109713E-01  0.238E-01    0.05       1.0  T
  15   -211.0046657  0.454595E-01  0.568E-01    0.04       1.0  T
  16   -211.0483302 -0.436645E-01  0.235E-01    0.04       1.0  T
  17   -211.0467771  0.155307E-02  0.256E-01    0.04       1.0  T
  18   -211.0477361 -0.958966E-03  0.239E-01    0.04       1.0  T
  19   -211.0422443  0.549174E-02  0.293E-01    0.03       1.0  T
  20   -211.0517635 -0.951920E-02  0.182E-01    0.04       1.0  T
  21   -211.0554203 -0.365679E-02  0.994E-02    0.04       1.0  T
  22   -211.0550394  0.380881E-03  0.111E-01    0.04       1.0  T
  23   -211.0563646 -0.132512E-02  0.649E-02    0.04       1.0  T
  24   -211.0567080 -0.343445E-03  0.490E-02    0.04       1.0  T
  25   -211.0568348 -0.126785E-03  0.373E-02    0.04       1.0  T
  26   -211.0570303 -0.195545E-03  0.106E-02    0.04       1.0  T
  27   -211.0570323 -0.200354E-05  0.884E-03    0.04       1.1  T
  28   -211.0570373 -0.498441E-05  0.642E-03    0.04       1.5  T
  29   -211.0570405 -0.321656E-05  0.381E-03    0.04       2.4  T
  30   -211.0570386  0.196905E-05  0.508E-03    0.04       1.8  T
  31   -211.0570331  0.545565E-05  0.754E-03    0.04       1.2  T
  32   -211.0570397 -0.662465E-05  0.410E-03    0.04       2.3  T
  33   -211.0570416 -0.183030E-05  0.241E-03    0.04       3.9  T
  34   -211.0570424 -0.788284E-06  0.108E-03    0.04       8.6  T
  35   -211.0570425 -0.163208E-06  0.346E-04    0.04      27.0  T
  36   -211.0570425 -0.150657E-07  0.220E-04    0.04      42.3  T
     SCC iter.                  ...        0 min,  1.028 sec
     gradient                   ...        0 min,  0.143 sec
 * total energy  :  -207.5360405 Eh     change       -0.2577507E-01 Eh
   gradient norm :     0.0381034 Eh/α   predicted    -0.2515376E-01 (  -2.41%)
   displ. norm   :     0.7289967 α      lambda       -0.1939684E-01
   maximum displ.:     0.2521002 α      in ANC's #61, #62, #18, ...

........................................................................
.............................. CYCLE    8 ..............................
........................................................................
   1   -211.0774559 -0.211077E+03  0.396E-01    0.01       0.0  T
   2   -209.9558094  0.112165E+01  0.210E+00    0.28       1.0  T
   3   -210.5320819 -0.576273E+00  0.190E+00    0.01       1.0  T
   4   -210.7667834 -0.234702E+00  0.140E+00    0.01       1.0  T
   5   -209.9413692  0.825414E+00  0.273E+00    0.01       1.0  T
   6   -210.9976373 -0.105627E+01  0.773E-01    0.03       1.0  T
   7   -210.9778320  0.198053E-01  0.758E-01    0.06       1.0  T
   8   -210.9633063  0.145258E-01  0.857E-01    0.02       1.0  T
   9   -210.8033128  0.159993E+00  0.127E+00    0.01       1.0  T
  10   -210.8534119 -0.500990E-01  0.120E+00    0.01       1.0  T
  11   -211.0416739 -0.188262E+00  0.561E-01    0.04       1.0  T
  12   -211.0539260 -0.122521E-01  0.509E-01    0.04       1.0  T
  13   -211.0670225 -0.130965E-01  0.401E-01    0.03       1.0  T
  14   -211.0829936 -0.159711E-01  0.224E-01    0.04       1.0  T
  15   -211.0882561 -0.526252E-02  0.143E-01    0.04       1.0  T
  16   -211.0803923  0.786379E-02  0.257E-01    0.03       1.0  T
  17   -211.0754257  0.496662E-02  0.310E-01    0.03       1.0  T
  18   -211.0826159 -0.719018E-02  0.238E-01    0.03       1.0  T
  19   -211.0879388 -0.532290E-02  0.160E-01    0.04       1.0  T
  20   -211.0870307  0.908118E-03  0.179E-01    0.04       1.0  T
  21   -211.0893201 -0.228937E-02  0.122E-01    0.04       1.0  T
  22   -211.0897374 -0.417316E-03  0.102E-01    0.03       1.0  T
  23   -211.0895518  0.185543E-03  0.106E-01    0.03       1.0  T
  24   -211.0903758 -0.823929E-03  0.719E-02    0.03       1.0  T
  25   -211.0910386 -0.662800E-03  0.286E-02    0.03       1.0  T
  26   -211.0910265  0.120819E-04  0.296E-02    0.03       1.0  T
  27   -211.0910550 -0.285701E-04  0.240E-02    0.03       1.0  T
  28   -211.0911093 -0.542839E-04  0.148E-02    0.03       1.0  T
  29   -211.0911409 -0.315757E-04  0.361E-03    0.03       2.6  T
  30   -211.0911423 -0.143685E-05  0.176E-03    0.03       5.3  T
  31   -211.0911426 -0.300216E-06  0.102E-03    0.03       9.1  T
  32   -211.0911428 -0.153392E-06  0.261E-04    0.03      35.7  T
  33   -211.0911428  0.120307E-07  0.414E-04    0.03      22.5  T
     SCC iter.                  ...        0 min,  0.942 sec
     gradient                   ...        0 min,  0.143 sec
 * total energy  :  -207.5512874 Eh     change       -0.1524693E-01 Eh
   gradient norm :     0.0273483 Eh/α   predicted    -0.1485252E-01 (  -2.59%)
   displ. norm   :     0.7407910 α      lambda       -0.1226148E-01
   maximum displ.:     0.3138431 α      in ANC's #18, #20, #19, ...

........................................................................
.............................. CYCLE    9 ..............................
........................................................................
   1   -211.1052413 -0.211105E+03  0.337E-01    0.01       0.0  T
   2   -210.5929942  0.512247E+00  0.153E+00    0.22       1.0  T
   3   -210.6830195 -0.900254E-01  0.163E+00    0.02       1.0  T
   4   -210.9159533 -0.232934E+00  0.116E+00    0.01       1.0  T
   5   -210.7892950  0.126658E+00  0.150E+00    0.03       1.0  T
   6   -210.8406574 -0.513624E-01  0.136E+00    0.04       1.0  T
   7   -210.8359130  0.474446E-02  0.110E+00    0.06       1.0  T
   8   -210.9059172 -0.700042E-01  0.110E+00    0.03       1.0  T
   9   -210.9980982 -0.921810E-01  0.754E-01    0.05       1.0  T
  10   -210.8428709  0.155227E+00  0.122E+00    0.03       1.0  T
  11   -211.0406568 -0.197786E+00  0.709E-01    0.03       1.0  T
  12   -211.0503573 -0.970053E-02  0.655E-01    0.03       1.0  T
  13   -211.0653031 -0.149457E-01  0.576E-01    0.03       1.0  T
  14   -211.0778972 -0.125942E-01  0.490E-01    0.03       1.0  T
  15   -211.1044791 -0.265819E-01  0.220E-01    0.03       1.0  T
  16   -211.1087301 -0.425094E-02  0.146E-01    0.03       1.0  T
  17   -211.1113969 -0.266681E-02  0.525E-02    0.03       1.0  T
  18   -211.1114128 -0.158798E-04  0.499E-02    0.03       1.0  T
  19   -211.1110564  0.356311E-03  0.690E-02    0.03       1.0  T
  20   -211.1114435 -0.387087E-03  0.435E-02    0.03       1.0  T
  21   -211.1111744  0.269154E-03  0.657E-02    0.03       1.0  T
  22   -211.1112623 -0.878902E-04  0.590E-02    0.02       1.0  T
  23   -211.1114021 -0.139839E-03  0.540E-02    0.02       1.0  T
  24   -211.1116022 -0.200054E-03  0.341E-02    0.03       1.0  T
  25   -211.1117346 -0.132465E-03  0.151E-02    0.03       1.0  T
  26   -211.1117617 -0.270726E-04  0.449E-03    0.03       2.1  T
  27   -211.1117599  0.183198E-05  0.573E-03    0.03       1.6  T
  28   -211.1117605 -0.628710E-06  0.483E-03    0.03       1.9  T
  29   -211.1117608 -0.297154E-06  0.396E-03    0.03       2.4  T
  30   -211.1117607  0.127217E-06  0.413E-03    0.03       2.3  T
  31   -211.1117621 -0.142030E-05  0.256E-03    0.03       3.6  T
  32   -211.1117630 -0.898207E-06  0.694E-04    0.03      13.4  T
  33   -211.1117630 -0.513978E-07  0.443E-04    0.03      21.0  T
     SCC iter.                  ...        0 min,  0.942 sec
     gradient                   ...        0 min,  0.143 sec
 * total energy  :  -207.5597955 Eh     change       -0.8508090E-02 Eh
   gradient norm :     0.0289716 Eh/α   predicted    -0.9495117E-02 (  11.60%)
   displ. norm   :     0.7906584 α      lambda       -0.1209266E-01
   maximum displ.:     0.3347470 α      in ANC's #18, #20, #9, ...

........................................................................
.............................. CYCLE   10 ..............................
........................................................................
   1   -211.1231620 -0.211123E+03  0.334E-01    0.00       0.0  T
   2   -210.7162755  0.406886E+00  0.140E+00    0.14       1.0  T
   3   -210.3418709  0.374405E+00  0.224E+00    0.02       1.0  T
   4   -209.9134019  0.428469E+00  0.290E+00    0.03       1.0  T
   5   -210.9296475 -0.101625E+01  0.117E+00    0.03       1.0  T
   6   -210.7951437  0.134504E+00  0.126E+00    0.00       1.0  T
   7   -210.8813549 -0.862112E-01  0.116E+00    0.03       1.0  T
   8   -210.7924071  0.889479E-01  0.144E+00    0.01       1.0  T
   9   -210.7927963 -0.389181E-03  0.153E+00    0.01       1.0  T
  10   -211.0288856 -0.236089E+00  0.785E-01    0.04       1.0  T
  11   -211.0658479 -0.369623E-01  0.671E-01    0.05       1.0  T
  12   -211.0648754  0.972483E-03  0.681E-01    0.04       1.0  T
  13   -211.1019340 -0.370586E-01  0.419E-01    0.03       1.0  T
  14   -211.1176844 -0.157505E-01  0.276E-01    0.03       1.0  T
  15   -211.1091890  0.849545E-02  0.356E-01    0.02       1.0  T
  16   -211.1084711  0.717864E-03  0.374E-01    0.01       1.0  T
  17   -211.1149003 -0.642921E-02  0.304E-01    0.01       1.0  T
  18   -211.1201218 -0.522150E-02  0.237E-01    0.01       1.0  T
  19   -211.1269098 -0.678800E-02  0.947E-02    0.02       1.0  T
  20   -211.1275499 -0.640024E-03  0.668E-02    0.02       1.0  T
  21   -211.1279286 -0.378767E-03  0.422E-02    0.02       1.0  T
  22   -211.1280913 -0.162647E-03  0.237E-02    0.02       1.0  T
  23   -211.1281555 -0.641716E-04  0.106E-02    0.02       1.0  T
  24   -211.1281636 -0.813558E-05  0.874E-03    0.02       1.1  T
  25   -211.1281653 -0.174444E-05  0.928E-03    0.02       1.0  T
  26   -211.1281741 -0.877313E-05  0.799E-03    0.02       1.2  T
  27   -211.1281548  0.193025E-04  0.158E-02    0.02       1.0  T
  28   -211.1281510  0.379469E-05  0.161E-02    0.02       1.0  T
  29   -211.1281499  0.108173E-05  0.160E-02    0.02       1.0  T
  30   -211.1281516 -0.169669E-05  0.150E-02    0.02       1.0  T
  31   -211.1281669 -0.152763E-04  0.958E-03    0.02       1.0  T
  32   -211.1281686 -0.169608E-05  0.831E-03    0.02       1.1  T
  33   -211.1281752 -0.657214E-05  0.276E-03    0.02       3.4  T
  34   -211.1281758 -0.662340E-06  0.784E-04    0.02      11.9  T
  35   -211.1281758 -0.124859E-07  0.678E-04    0.02      13.8  T
     SCC iter.                  ...        0 min,  1.000 sec
     gradient                   ...        0 min,  0.144 sec
 * total energy  :  -207.5672672 Eh     change       -0.7471684E-02 Eh
   gradient norm :     0.0302751 Eh/α   predicted    -0.9826162E-02 (  31.51%)
   displ. norm   :     0.7035325 α      lambda       -0.8302054E-02
   maximum displ.:     0.3458463 α      in ANC's #18, #20, #9, ...

........................................................................
.............................. CYCLE   11 ..............................
........................................................................
   1   -211.1306903 -0.211131E+03  0.272E-01    0.00       0.0  T
   2   -210.5351679  0.595522E+00  0.193E+00    0.02       1.0  T
   3   -210.8562495 -0.321082E+00  0.146E+00    0.06       1.0  T
   4   -209.8392135  0.101704E+01  0.303E+00    0.03       1.0  T
   5   -210.3830772 -0.543864E+00  0.215E+00    0.02       1.0  T
   6   -211.0082802 -0.625203E+00  0.955E-01    0.00       1.0  T
   7   -210.8588470  0.149433E+00  0.117E+00    0.07       1.0  T
   8   -210.9152411 -0.563941E-01  0.119E+00    0.01       1.0  T
   9   -211.1033168 -0.188076E+00  0.469E-01    0.01       1.0  T
  10   -211.0980827  0.523413E-02  0.465E-01    0.00       1.0  T
  11   -211.1153620 -0.172794E-01  0.357E-01    0.02       1.0  T
  12   -211.1291894 -0.138274E-01  0.184E-01    0.01       1.0  T
  13   -211.1206270  0.856247E-02  0.303E-01    0.01       1.0  T
  14   -211.1284041 -0.777713E-02  0.208E-01    0.01       1.0  T
  15   -211.1247341  0.366998E-02  0.260E-01    0.01       1.0  T
  16   -211.1215102  0.322389E-02  0.288E-01    0.00       1.0  T
  17   -211.1300774 -0.856712E-02  0.166E-01    0.01       1.0  T
  18   -211.1324501 -0.237270E-02  0.115E-01    0.01       1.0  T
  19   -211.1330222 -0.572168E-03  0.957E-02    0.01       1.0  T
  20   -211.1340847 -0.106248E-02  0.404E-02    0.01       1.0  T
  21   -211.1343178 -0.233067E-03  0.234E-03    0.01       4.0  T
  22   -211.1343114  0.633987E-05  0.720E-03    0.01       1.3  T
  23   -211.1342877  0.237650E-04  0.147E-02    0.01       1.0  T
  24   -211.1343070 -0.193324E-04  0.881E-03    0.01       1.1  T
  25   -211.1343177 -0.107439E-04  0.218E-03    0.01       4.3  T
  26   -211.1343181 -0.367248E-06  0.156E-03    0.01       6.0  T
  27   -211.1343184 -0.256800E-06  0.690E-04    0.01      13.5  T
  28   -211.1343184 -0.431323E-07  0.427E-04    0.01      21.8  T
     SCC iter.                  ...        0 min,  0.798 sec
     gradient                   ...        0 min,  0.144 sec
 * total energy  :  -207.5755185 Eh     change       -0.8251301E-02 Eh
   gradient norm :     0.0336847 Eh/α   predicted    -0.6205619E-02 ( -24.79%)
   displ. norm   :     0.9066469 α      lambda       -0.1335198E-01
   maximum displ.:     0.4145329 α      in ANC's #18, #9, #20, ...

........................................................................
.............................. CYCLE   12 ..............................
........................................................................
   1   -211.1374638 -0.211137E+03  0.394E-01    0.01       0.0  T
   2   -204.6719583  0.646551E+01  0.582E+00    0.01       1.0  T
   3   -210.5659358 -0.589398E+01  0.190E+00    0.02       1.0  T
   4   -210.1535365  0.412399E+00  0.263E+00    0.03       1.0  T
   5   -210.8631222 -0.709586E+00  0.133E+00    0.02       1.0  T
   6   -210.7393837  0.123739E+00  0.147E+00    0.01       1.0  T
   7   -210.8751518 -0.135768E+00  0.129E+00    0.02       1.0  T
   8   -211.0254545 -0.150303E+00  0.890E-01    0.01       1.0  T
   9   -210.0919936  0.933461E+00  0.274E+00    0.02       1.0  T
  10   -210.1697467 -0.777531E-01  0.265E+00    0.02       1.0  T
  11   -210.3279863 -0.158240E+00  0.242E+00    0.02       1.0  T
  12   -210.3633985 -0.354122E-01  0.233E+00    0.02       1.0  T
  13   -210.8820917 -0.518693E+00  0.132E+00    0.01       1.0  T
  14   -211.0322340 -0.150142E+00  0.768E-01    0.00       1.0  T
  15   -210.2868124  0.745422E+00  0.239E+00    0.02       1.0  T
  16   -210.9041419 -0.617330E+00  0.131E+00    0.02       1.0  T
  17   -210.8893964  0.147455E-01  0.133E+00    0.02       1.0  T
  18   -211.0262713 -0.136875E+00  0.921E-01    0.00       1.0  T
  19   -211.0974889 -0.712175E-01  0.583E-01    0.00       1.0  T
  20   -211.0927560  0.473281E-02  0.617E-01    0.00       1.0  T
  21   -211.0824636  0.102924E-01  0.679E-01    0.00       1.0  T
  22   -211.1056935 -0.232299E-01  0.554E-01    0.00       1.0  T
  23   -211.1474486 -0.417551E-01  0.139E-01    0.01       1.0  T
  24   -211.1465382  0.910373E-03  0.160E-01    0.01       1.0  T
  25   -211.1439319  0.260627E-02  0.187E-01    0.01       1.0  T
  26   -211.1479012 -0.396925E-02  0.104E-01    0.01       1.0  T
  27   -211.1445912  0.331000E-02  0.170E-01    0.01       1.0  T
  28   -211.1474702 -0.287900E-02  0.100E-01    0.01       1.0  T
  29   -211.1475997 -0.129485E-03  0.989E-02    0.01       1.0  T
  30   -211.1476929 -0.932515E-04  0.959E-02    0.01       1.0  T
  31   -211.1483104 -0.617539E-03  0.763E-02    0.01       1.0  T
  32   -211.1485799 -0.269485E-03  0.658E-02    0.01       1.0  T
  33   -211.1488517 -0.271759E-03  0.543E-02    0.01       1.0  T
  34   -211.1491173 -0.265637E-03  0.387E-02    0.01       1.0  T
  35   -211.1492536 -0.136300E-03  0.269E-02    0.01       1.0  T
  36   -211.1493077 -0.540315E-04  0.209E-02    0.01       1.0  T
  37   -211.1493425 -0.348247E-04  0.149E-02    0.01       1.0  T
  38   -211.1493600 -0.175327E-04  0.107E-02    0.01       1.0  T
  39   -211.1493604 -0.388661E-06  0.105E-02    0.01       1.0  T
  40   -211.1493684 -0.801829E-05  0.758E-03    0.01       1.2  T
  41   -211.1493743 -0.590735E-05  0.430E-03    0.01       2.2  T
  42   -211.1493762 -0.184513E-05  0.260E-03    0.01       3.6  T
  43   -211.1493771 -0.961160E-06  0.736E-04    0.01      12.7  T
  44   -211.1493772 -0.671577E-07  0.310E-04    0.01      30.1  T
     SCC iter.                  ...        0 min,  1.254 sec
     gradient                   ...        0 min,  0.143 sec
 * total energy  :  -207.5880056 Eh     change       -0.1248712E-01 Eh
   gradient norm :     0.0366181 Eh/α   predicted    -0.1216371E-01 (  -2.59%)
   displ. norm   :     0.9672758 α      lambda       -0.1327382E-01
   maximum displ.:     0.4503413 α      in ANC's #18, #20, #9, ...

........................................................................
.............................. CYCLE   13 ..............................
........................................................................
   1   -211.1238780 -0.211124E+03  0.409E-01    0.00       0.0  T
   2   -203.9418823  0.718200E+01  0.611E+00    0.02       1.0  T
   3   -210.4402647 -0.649838E+01  0.207E+00    0.03       1.0  T
   4   -210.2277367  0.212528E+00  0.251E+00    0.02       1.0  T
   5   -210.9434565 -0.715720E+00  0.113E+00    0.02       1.0  T
   6   -210.7053506  0.238106E+00  0.150E+00    0.01       1.0  T
   7   -211.0544933 -0.349143E+00  0.764E-01    0.02       1.0  T
   8   -210.7128156  0.341678E+00  0.166E+00    0.02       1.0  T
   9   -210.3785639  0.334252E+00  0.212E+00    0.03       1.0  T
  10   -210.8490324 -0.470469E+00  0.138E+00    0.02       1.0  T
  11   -211.0110243 -0.161992E+00  0.881E-01    0.02       1.0  T
  12   -210.9518774  0.591469E-01  0.110E+00    0.00       1.0  T
  13   -211.0079661 -0.560887E-01  0.921E-01    0.01       1.0  T
  14   -211.0038589  0.410721E-02  0.927E-01    0.01       1.0  T
  15   -211.1322927 -0.128434E+00  0.251E-01    0.02       1.0  T
  16   -211.0868312  0.454615E-01  0.591E-01    0.01       1.0  T
  17   -211.1215675 -0.347363E-01  0.365E-01    0.01       1.0  T
  18   -211.1400923 -0.185248E-01  0.104E-01    0.02       1.0  T
  19   -211.1363480  0.374424E-02  0.190E-01    0.02       1.0  T
  20   -211.1389020 -0.255394E-02  0.136E-01    0.02       1.0  T
  21   -211.1408428 -0.194082E-02  0.701E-02    0.02       1.0  T
  22   -211.1412551 -0.412316E-03  0.400E-02    0.02       1.0  T
  23   -211.1404659  0.789155E-03  0.749E-02    0.02       1.0  T
  24   -211.1410880 -0.622076E-03  0.480E-02    0.02       1.0  T
  25   -211.1413380 -0.249940E-03  0.327E-02    0.02       1.0  T
  26   -211.1415009 -0.162919E-03  0.148E-02    0.02       1.0  T
  27   -211.1415141 -0.131974E-04  0.130E-02    0.02       1.0  T
  28   -211.1415398 -0.256891E-04  0.605E-03    0.02       1.5  T
  29   -211.1415421 -0.232315E-05  0.498E-03    0.02       1.9  T
  30   -211.1415456 -0.356360E-05  0.140E-03    0.02       6.7  T
  31   -211.1415452  0.452632E-06  0.211E-03    0.02       4.4  T
  32   -211.1415457 -0.455453E-06  0.135E-03    0.02       6.9  T
  33   -211.1415454  0.255269E-06  0.181E-03    0.02       5.2  T
  34   -211.1415456 -0.229744E-06  0.131E-03    0.02       7.1  T
  35   -211.1415458 -0.208940E-06  0.556E-04    0.02      16.8  T
  36   -211.1415458 -0.842303E-08  0.454E-04    0.02      20.5  T
     SCC iter.                  ...        0 min,  1.028 sec
     gradient                   ...        0 min,  0.143 sec
 * total energy  :  -207.6017553 Eh     change       -0.1374969E-01 Eh
   gradient norm :     0.0534298 Eh/α   predicted    -0.1284655E-01 (  -6.57%)
   displ. norm   :     0.9453618 α      lambda       -0.1492732E-01
   maximum displ.:     0.4262042 α      in ANC's #18, #9, #20, ...

........................................................................
.............................. CYCLE   14 ..............................
........................................................................
   1   -211.1158636 -0.211116E+03  0.421E-01    0.00       0.0  T
   2   -203.9089196  0.720694E+01  0.611E+00    0.02       1.0  T
   3   -210.1399637 -0.623104E+01  0.253E+00    0.02       1.0  T
   4   -210.3854636 -0.245500E+00  0.213E+00    0.04       1.0  T
   5   -211.0262313 -0.640768E+00  0.849E-01    0.00       1.0  T
   6   -210.7888830  0.237348E+00  0.138E+00    0.02       1.0  T
   7   -210.8206640 -0.317810E-01  0.137E+00    0.02       1.0  T
   8   -210.9666829 -0.146019E+00  0.101E+00    0.03       1.0  T
   9   -211.0325440 -0.658611E-01  0.788E-01    0.03       1.0  T
  10   -211.0558565 -0.233125E-01  0.720E-01    0.00       1.0  T
  11   -210.9618032  0.940534E-01  0.101E+00    0.02       1.0  T
  12   -211.0771792 -0.115376E+00  0.593E-01    0.03       1.0  T
  13   -211.0607962  0.163830E-01  0.674E-01    0.02       1.0  T
  14   -211.1251091 -0.643129E-01  0.258E-01    0.02       1.0  T
  15   -211.1331989 -0.808982E-02  0.141E-01    0.01       1.0  T
  16   -211.1344837 -0.128482E-02  0.106E-01    0.02       1.0  T
  17   -211.1360408 -0.155710E-02  0.472E-02    0.01       1.0  T
  18   -211.1360672 -0.263531E-04  0.439E-02    0.01       1.0  T
  19   -211.1363788 -0.311595E-03  0.869E-03    0.01       1.1  T
  20   -211.1361734  0.205420E-03  0.371E-02    0.02       1.0  T
  21   -211.1363310 -0.157631E-03  0.198E-02    0.01       1.0  T
  22   -211.1363306  0.339005E-06  0.200E-02    0.01       1.0  T
  23   -211.1363498 -0.191603E-04  0.168E-02    0.02       1.0  T
  24   -211.1363680 -0.182132E-04  0.126E-02    0.02       1.0  T
  25   -211.1363720 -0.398877E-05  0.113E-02    0.02       1.0  T
  26   -211.1363829 -0.108639E-04  0.705E-03    0.02       1.3  T
  27   -211.1363899 -0.702735E-05  0.173E-03    0.01       5.4  T
  28   -211.1363904 -0.475694E-06  0.363E-04    0.01      25.7  T
  29   -211.1363904  0.447301E-08  0.419E-04    0.01      22.2  T
     SCC iter.                  ...        0 min,  0.826 sec
     gradient                   ...        0 min,  0.143 sec
 * total energy  :  -207.6179265 Eh     change       -0.1617119E-01 Eh
   gradient norm :     0.0747162 Eh/α   predicted    -0.1413400E-01 ( -12.60%)
   displ. norm   :     0.9021432 α      lambda       -0.1834643E-01
   maximum displ.:     0.3909731 α      in ANC's #9, #18, #20, ...

........................................................................
.............................. CYCLE   15 ..............................
........................................................................
   1   -211.1095776 -0.211110E+03  0.451E-01    0.01       0.0  T
   2   -207.3461369  0.376344E+01  0.443E+00    0.02       1.0  T
   3   -210.5701656 -0.322403E+01  0.183E+00    0.04       1.0  T
   4   -210.1568991  0.413266E+00  0.237E+00    0.05       1.0  T
   5   -209.8409275  0.315972E+00  0.292E+00    0.01       1.0  T
   6   -211.1148085 -0.127388E+01  0.312E-01    0.01       1.0  T
   7   -211.0271699  0.876386E-01  0.808E-01    0.01       1.0  T
   8   -211.1019914 -0.748215E-01  0.424E-01    0.00       1.0  T
   9   -211.1182373 -0.162459E-01  0.262E-01    0.00       1.0  T
  10   -211.0825568  0.356804E-01  0.524E-01    0.01       1.0  T
  11   -211.0958298 -0.132730E-01  0.463E-01    0.02       1.0  T
  12   -211.1090734 -0.132435E-01  0.363E-01    0.02       1.0  T
  13   -211.1047186  0.435478E-02  0.394E-01    0.01       1.0  T
  14   -211.1156968 -0.109783E-01  0.299E-01    0.01       1.0  T
  15   -211.1194276 -0.373077E-02  0.257E-01    0.01       1.0  T
  16   -211.1249242 -0.549660E-02  0.176E-01    0.01       1.0  T
  17   -211.1288002 -0.387599E-02  0.789E-02    0.01       1.0  T
  18   -211.1292464 -0.446189E-03  0.569E-02    0.01       1.0  T
  19   -211.1294808 -0.234410E-03  0.409E-02    0.01       1.0  T
  20   -211.1296379 -0.157070E-03  0.248E-02    0.01       1.0  T
  21   -211.1296947 -0.568605E-04  0.151E-02    0.01       1.0  T
  22   -211.1297242 -0.294556E-04  0.380E-03    0.01       2.5  T
  23   -211.1297101  0.140473E-04  0.984E-03    0.01       1.0  T
  24   -211.1297155 -0.535100E-05  0.815E-03    0.01       1.1  T
  25   -211.1297256 -0.101343E-04  0.269E-03    0.01       3.5  T
  26   -211.1297268 -0.115983E-05  0.943E-04    0.01       9.9  T
  27   -211.1297268  0.120036E-07  0.995E-04    0.01       9.4  T
  28   -211.1297269 -0.966488E-07  0.712E-04    0.01      13.1  T
     SCC iter.                  ...        0 min,  0.796 sec
     gradient                   ...        0 min,  0.143 sec
 * total energy  :  -207.6378874 Eh     change       -0.1996087E-01 Eh
   gradient norm :     0.0951564 Eh/α   predicted    -0.1663894E-01 ( -16.64%)
   displ. norm   :     0.8634301 α      lambda       -0.2275321E-01
   maximum displ.:     0.3710401 α      in ANC's #9, #18, #20, ...

........................................................................
.............................. CYCLE   16 ..............................
........................................................................
   1   -211.1030502 -0.211103E+03  0.410E-01    0.00       0.0  T
   2   -207.5028929  0.360016E+01  0.430E+00    0.00       1.0  T
   3   -210.0472591 -0.254437E+01  0.252E+00    0.01       1.0  T
   4   -210.7734697 -0.726211E+00  0.140E+00    0.00       1.0  T
   5   -210.2748621  0.498608E+00  0.218E+00    0.04       1.0  T
   6   -211.0163065 -0.741444E+00  0.783E-01    0.04       1.0  T
   7   -210.8898179  0.126489E+00  0.116E+00    0.05       1.0  T
   8   -210.9179946 -0.281766E-01  0.109E+00    0.01       1.0  T
   9   -211.0329824 -0.114988E+00  0.744E-01    0.02       1.0  T
  10   -211.1022895 -0.693071E-01  0.336E-01    0.00       1.0  T
  11   -211.1113870 -0.909753E-02  0.221E-01    0.01       1.0  T
  12   -211.1084849  0.290214E-02  0.245E-01    0.01       1.0  T
  13   -211.1071850  0.129989E-02  0.271E-01    0.01       1.0  T
  14   -211.1146200 -0.743502E-02  0.168E-01    0.01       1.0  T
  15   -211.1128165  0.180354E-02  0.199E-01    0.02       1.0  T
  16   -211.1150262 -0.220972E-02  0.159E-01    0.02       1.0  T
  17   -211.1182341 -0.320795E-02  0.659E-02    0.02       1.0  T
  18   -211.1184592 -0.225082E-03  0.508E-02    0.02       1.0  T
  19   -211.1186934 -0.234136E-03  0.321E-02    0.01       1.0  T
  20   -211.1188336 -0.140269E-03  0.151E-02    0.01       1.0  T
  21   -211.1188635 -0.298764E-04  0.492E-03    0.01       1.9  T
  22   -211.1188650 -0.150446E-05  0.354E-03    0.01       2.6  T
  23   -211.1188654 -0.358367E-06  0.288E-03    0.01       3.2  T
  24   -211.1188661 -0.711408E-06  0.157E-03    0.01       5.9  T
  25   -211.1188662 -0.959547E-07  0.118E-03    0.01       7.9  T
  26   -211.1188664 -0.195819E-06  0.532E-04    0.01      17.5  T
  27   -211.1188664 -0.446193E-07  0.185E-04    0.01      50.5  T
     SCC iter.                  ...        0 min,  0.768 sec
     gradient                   ...        0 min,  0.143 sec
 * total energy  :  -207.6617516 Eh     change       -0.2386429E-01 Eh
   gradient norm :     0.1116869 Eh/α   predicted    -0.1985799E-01 ( -16.79%)
   displ. norm   :     0.8455133 α      lambda       -0.2609602E-01
   maximum displ.:     0.3755669 α      in ANC's #9, #18, #20, ...

........................................................................
.............................. CYCLE   17 ..............................
........................................................................
   1   -211.0992837 -0.211099E+03  0.390E-01    0.00       0.0  T
   2   -207.4237544  0.367553E+01  0.433E+00    0.00       1.0  T
   3   -210.6307738 -0.320702E+01  0.168E+00    0.04       1.0  T
   4   -210.8552408 -0.224467E+00  0.123E+00    0.05       1.0  T
   5   -210.9705738 -0.115333E+00  0.927E-01    0.04       1.0  T
   6   -210.6607342  0.309840E+00  0.166E+00    0.06       1.0  T
   7   -210.9879018 -0.327168E+00  0.863E-01    0.06       1.0  T
   8   -211.0597361 -0.718343E-01  0.578E-01    0.02       1.0  T
   9   -211.0958858 -0.361498E-01  0.332E-01    0.01       1.0  T
  10   -211.1128305 -0.169447E-01  0.586E-02    0.01       1.0  T
  11   -211.1128838 -0.532584E-04  0.514E-02    0.01       1.0  T
  12   -211.0975746  0.153092E-01  0.316E-01    0.02       1.0  T
  13   -211.1064582 -0.888362E-02  0.210E-01    0.02       1.0  T
  14   -211.1114785 -0.502030E-02  0.108E-01    0.02       1.0  T
  15   -211.1120420 -0.563554E-03  0.932E-02    0.01       1.0  T
  16   -211.1127598 -0.717767E-03  0.618E-02    0.01       1.0  T
  17   -211.1129799 -0.220122E-03  0.469E-02    0.01       1.0  T
  18   -211.1131714 -0.191464E-03  0.304E-02    0.01       1.0  T
  19   -211.1132281 -0.567227E-04  0.227E-02    0.01       1.0  T
  20   -211.1132760 -0.479115E-04  0.123E-02    0.01       1.0  T
  21   -211.1132971 -0.210466E-04  0.412E-03    0.01       2.3  T
  22   -211.1132992 -0.208766E-05  0.183E-03    0.01       5.1  T
  23   -211.1132993 -0.155458E-06  0.144E-03    0.01       6.5  T
  24   -211.1132995 -0.220624E-06  0.734E-04    0.01      12.7  T
  25   -211.1132996 -0.609534E-07  0.366E-04    0.01      25.5  T
     SCC iter.                  ...        0 min,  0.713 sec
     gradient                   ...        0 min,  0.143 sec
 * total energy  :  -207.6877817 Eh     change       -0.2603010E-01 Eh
   gradient norm :     0.1203315 Eh/α   predicted    -0.2237592E-01 ( -14.04%)
   displ. norm   :     0.7915858 α      lambda       -0.4576290E-01
   maximum displ.:     0.2784742 α      in ANC's #9, #35, #34, ...

........................................................................
.............................. CYCLE   18 ..............................
........................................................................
   1   -211.0529468 -0.211053E+03  0.559E-01    0.02       0.0  T
   2   -204.0269505  0.702600E+01  0.604E+00    0.01       1.0  T
   3   -210.3449053 -0.631795E+01  0.214E+00    0.07       1.0  T
   4   -210.1334887  0.211417E+00  0.231E+00    0.07       1.0  T
   5   -210.1302834  0.320528E-02  0.236E+00    0.02       1.0  T
   6   -210.8830596 -0.752776E+00  0.109E+00    0.02       1.0  T
   7   -211.0229076 -0.139848E+00  0.592E-01    0.00       1.0  T
   8   -210.9862545  0.366531E-01  0.771E-01    0.01       1.0  T
   9   -211.0599239 -0.736694E-01  0.369E-01    0.00       1.0  T
  10   -211.0758377 -0.159138E-01  0.212E-01    0.00       1.0  T
  11   -211.0816533 -0.581566E-02  0.921E-02    0.00       1.0  T
  12   -211.0814577  0.195663E-03  0.109E-01    0.01       1.0  T
  13   -211.0823448 -0.887119E-03  0.689E-02    0.01       1.0  T
  14   -211.0805658  0.177896E-02  0.132E-01    0.01       1.0  T
  15   -211.0816956 -0.112977E-02  0.939E-02    0.01       1.0  T
  16   -211.0820571 -0.361498E-03  0.780E-02    0.01       1.0  T
  17   -211.0819170  0.140056E-03  0.860E-02    0.01       1.0  T
  18   -211.0818196  0.974479E-04  0.894E-02    0.01       1.0  T
  19   -211.0822484 -0.428846E-03  0.701E-02    0.01       1.0  T
  20   -211.0826594 -0.410925E-03  0.440E-02    0.01       1.0  T
  21   -211.0828470 -0.187658E-03  0.239E-02    0.01       1.0  T
  22   -211.0829041 -0.570443E-04  0.121E-02    0.01       1.0  T
  23   -211.0829214 -0.173732E-04  0.481E-03    0.01       1.9  T
  24   -211.0829245 -0.303945E-05  0.249E-03    0.00       3.7  T
  25   -211.0829251 -0.654616E-06  0.112E-03    0.00       8.4  T
  26   -211.0829253 -0.167825E-06  0.538E-04    0.01      17.3  T
  27   -211.0829253 -0.207238E-07  0.364E-04    0.01      25.6  T
     SCC iter.                  ...        0 min,  0.771 sec
     gradient                   ...        0 min,  0.143 sec
 * total energy  :  -207.7054743 Eh     change       -0.1769254E-01 Eh
   gradient norm :     0.1742825 Eh/α   predicted    -0.3721911E-01 ( 110.37%)
   displ. norm   :     0.4732940 α      lambda       -0.3719110E-01
   maximum displ.:     0.1743249 α      in ANC's #9, #18, #20, ...

........................................................................
.............................. CYCLE   19 ..............................
........................................................................
   1   -211.0896727 -0.211090E+03  0.219E-01    0.01       0.0  T
   2   -210.0429691  0.104670E+01  0.245E+00    0.09       1.0  T
   3   -210.8249269 -0.781958E+00  0.125E+00    0.03       1.0  T
   4   -210.8562386 -0.313116E-01  0.118E+00    0.06       1.0  T
   5   -211.0557259 -0.199487E+00  0.492E-01    0.02       1.0  T
   6   -210.8182077  0.237518E+00  0.126E+00    0.06       1.0  T
   7   -211.0249943 -0.206787E+00  0.632E-01    0.00       1.0  T
   8   -211.0488039 -0.238095E-01  0.517E-01    0.02       1.0  T
   9   -211.0215116  0.272923E-01  0.649E-01    0.02       1.0  T
  10   -211.0125459  0.896566E-02  0.685E-01    0.02       1.0  T
  11   -211.0570521 -0.445062E-01  0.466E-01    0.03       1.0  T
  12   -211.0632380 -0.618586E-02  0.425E-01    0.03       1.0  T
  13   -211.0876992 -0.244612E-01  0.203E-01    0.02       1.0  T
  14   -211.0940021 -0.630295E-02  0.653E-02    0.01       1.0  T
  15   -211.0934964  0.505764E-03  0.828E-02    0.00       1.0  T
  16   -211.0933124  0.184021E-03  0.885E-02    0.00       1.0  T
  17   -211.0946316 -0.131922E-02  0.179E-02    0.01       1.0  T
  18   -211.0946493 -0.177530E-04  0.151E-02    0.01       1.0  T
  19   -211.0946741 -0.247772E-04  0.906E-03    0.01       1.0  T
  20   -211.0946879 -0.137639E-04  0.176E-03    0.01       5.3  T
  21   -211.0946878  0.679052E-07  0.185E-03    0.01       5.0  T
  22   -211.0946884 -0.601153E-06  0.169E-04    0.01      55.3  T
  23   -211.0946883  0.522392E-07  0.572E-04    0.01      16.3  T
     SCC iter.                  ...        0 min,  0.656 sec
     gradient                   ...        0 min,  0.143 sec
 * total energy  :  -207.7315981 Eh     change       -0.2612381E-01 Eh
   gradient norm :     0.1092935 Eh/α   predicted    -0.2276110E-01 ( -12.87%)
   displ. norm   :     0.7130059 α      lambda       -0.3758683E-01
   maximum displ.:     0.3369524 α      in ANC's #9, #10, #35, ...

........................................................................
.............................. CYCLE   20 ..............................
........................................................................
   1   -211.1120891 -0.211112E+03  0.316E-01    0.00       0.0  T
   2   -210.1673932  0.944696E+00  0.236E+00    0.10       1.0  T
   3   -210.6265250 -0.459132E+00  0.166E+00    0.04       1.0  T
   4   -210.1403255  0.486199E+00  0.233E+00    0.07       1.0  T
   5   -211.0490209 -0.908695E+00  0.619E-01    0.01       1.0  T
   6   -211.0194660  0.295549E-01  0.734E-01    0.04       1.0  T
   7   -211.1073874 -0.879214E-01  0.215E-01    0.01       1.0  T
   8   -211.1101170 -0.272963E-02  0.168E-01    0.01       1.0  T
   9   -211.1117166 -0.159954E-02  0.136E-01    0.01       1.0  T
  10   -211.1116097  0.106856E-03  0.133E-01    0.01       1.0  T
  11   -211.1115025  0.107185E-03  0.133E-01    0.01       1.0  T
  12   -211.1136178 -0.211523E-02  0.730E-02    0.01       1.0  T
  13   -211.1143387 -0.720972E-03  0.316E-02    0.00       1.0  T
  14   -211.1144984 -0.159628E-03  0.855E-03    0.01       1.1  T
  15   -211.1145091 -0.106945E-04  0.243E-03    0.01       3.8  T
  16   -211.1145057  0.337748E-05  0.496E-03    0.01       1.9  T
  17   -211.1145076 -0.190801E-05  0.358E-03    0.01       2.6  T
  18   -211.1145090 -0.142084E-05  0.213E-03    0.01       4.4  T
  19   -211.1145095 -0.484377E-06  0.128E-03    0.01       7.3  T
  20   -211.1145098 -0.271245E-06  0.311E-04    0.01      30.0  T
  21   -211.1145098  0.309404E-08  0.343E-04    0.01      27.2  T
     SCC iter.                  ...        0 min,  0.600 sec
     gradient                   ...        0 min,  0.143 sec
 * total energy  :  -207.7651018 Eh     change       -0.3350368E-01 Eh
   gradient norm :     0.0887125 Eh/α   predicted    -0.2834759E-01 ( -15.39%)
   displ. norm   :     0.8842025 α      lambda       -0.4963594E-01
   maximum displ.:     0.3580397 α      in ANC's #9, #38, #10, ...
 * RMSD in coord.:     1.0610457 α      energy gain  -0.7688883E+00 Eh

generating ANC from model Hessian ...
Using Lindh-Hessian (1995)
 Shifting diagonal of input Hessian by    1.0017865314932076E-002
 Lowest  eigenvalues of input Hessian
    0.010000    0.010008    0.010014    0.010015    0.000000    0.000000
    0.000000    0.000000    0.000000    0.000000    0.010020    0.010032
    0.010032    0.010038    0.010094    0.010193    0.010754    0.010997
 Highest eigenvalues
    2.105040    2.117333    2.118446    2.119302    2.332706    2.539051


........................................................................
.............................. CYCLE   21 ..............................
........................................................................
   1   -211.0993371 -0.211099E+03  0.459E-01    0.00       0.0  T
   2   -209.9767439  0.112259E+01  0.261E+00    0.15       1.0  T
   3   -210.1294482 -0.152704E+00  0.234E+00    0.08       1.0  T
   4   -210.9430597 -0.813611E+00  0.969E-01    0.02       1.0  T
   5   -210.8112191  0.131841E+00  0.134E+00    0.05       1.0  T
   6   -210.6001754  0.211044E+00  0.168E+00    0.07       1.0  T
   7   -211.1098755 -0.509700E+00  0.125E-01    0.01       1.0  T
   8   -211.0925668  0.173087E-01  0.328E-01    0.01       1.0  T
   9   -211.1061937 -0.136269E-01  0.185E-01    0.02       1.0  T
  10   -211.1077528 -0.155904E-02  0.155E-01    0.00       1.0  T
  11   -211.0936429  0.141098E-01  0.321E-01    0.01       1.0  T
  12   -211.1027718 -0.912891E-02  0.227E-01    0.01       1.0  T
  13   -211.1101499 -0.737805E-02  0.969E-02    0.01       1.0  T
  14   -211.1115118 -0.136194E-02  0.394E-02    0.01       1.0  T
  15   -211.1115520 -0.402059E-04  0.353E-02    0.01       1.0  T
  16   -211.1111129  0.439093E-03  0.599E-02    0.00       1.0  T
  17   -211.1116778 -0.564836E-03  0.224E-02    0.01       1.0  T
  18   -211.1117603 -0.825254E-04  0.782E-03    0.01       1.2  T
  19   -211.1117611 -0.841405E-06  0.737E-03    0.01       1.3  T
  20   -211.1117675 -0.639640E-05  0.424E-03    0.01       2.2  T
  21   -211.1117702 -0.263673E-05  0.181E-03    0.01       5.1  T
  22   -211.1117706 -0.380545E-06  0.102E-03    0.01       9.1  T
  23   -211.1117707 -0.170591E-06  0.225E-04    0.01      41.5  T
  24   -211.1117707  0.491970E-07  0.567E-04    0.01      16.4  T
     SCC iter.                  ...        0 min,  0.685 sec
     gradient                   ...        0 min,  0.143 sec
 * total energy  :  -207.7996285 Eh     change       -0.3452672E-01 Eh
   gradient norm :     0.0761627 Eh/α   predicted     0.0000000E+00 (-100.00%)
   displ. norm   :     0.6745090 α      lambda       -0.2728662E-01
   maximum displ.:     0.4624941 α      in ANC's #13, #15, #59, ...

........................................................................
.............................. CYCLE   22 ..............................
........................................................................
   1   -211.1562960 -0.211156E+03  0.182E-01    0.00       0.0  T
   2   -210.2095320  0.946764E+00  0.236E+00    0.11       1.0  T
   3   -211.0116468 -0.802115E+00  0.923E-01    0.03       1.0  T
   4   -210.9405902  0.710566E-01  0.110E+00    0.05       1.0  T
   5   -211.0593240 -0.118734E+00  0.740E-01    0.01       1.0  T
   6   -211.1565287 -0.972047E-01  0.863E-02    0.00       1.0  T
   7   -211.1566840 -0.155318E-03  0.773E-02    0.01       1.0  T
   8   -211.1566699  0.141014E-04  0.744E-02    0.01       1.0  T
   9   -211.1562654  0.404465E-03  0.819E-02    0.00       1.0  T
  10   -211.1569737 -0.708304E-03  0.531E-02    0.01       1.0  T
  11   -211.1573490 -0.375250E-03  0.252E-02    0.01       1.0  T
  12   -211.1571961  0.152899E-03  0.380E-02    0.01       1.0  T
  13   -211.1573844 -0.188313E-03  0.178E-02    0.01       1.0  T
  14   -211.1573905 -0.616431E-05  0.163E-02    0.01       1.0  T
  15   -211.1574269 -0.364072E-04  0.732E-03    0.01       1.3  T
  16   -211.1574363 -0.938319E-05  0.104E-03    0.01       9.0  T
  17   -211.1574356  0.759890E-06  0.227E-03    0.01       4.1  T
  18   -211.1574358 -0.269913E-06  0.190E-03    0.01       4.9  T
  19   -211.1574364 -0.565468E-06  0.705E-04    0.01      13.2  T
  20   -211.1574365 -0.879263E-07  0.826E-05    0.01     112.9  T
     SCC iter.                  ...        0 min,  0.571 sec
     gradient                   ...        0 min,  0.143 sec
 * total energy  :  -207.8233635 Eh     change       -0.2373505E-01 Eh
   gradient norm :     0.0454890 Eh/α   predicted    -0.1985160E-01 ( -16.36%)
   displ. norm   :     0.8403289 α      lambda       -0.2513423E-01
   maximum displ.:     0.6138325 α      in ANC's #13, #15, #59, ...

........................................................................
.............................. CYCLE   23 ..............................
........................................................................
   1   -211.1975702 -0.211198E+03  0.236E-01    0.00       0.0  T
   2   -210.1701402  0.102743E+01  0.247E+00    0.13       1.0  T
   3   -210.6421031 -0.471963E+00  0.174E+00    0.08       1.0  T
   4   -210.9604677 -0.318365E+00  0.116E+00    0.04       1.0  T
   5   -211.1038193 -0.143352E+00  0.749E-01    0.06       1.0  T
   6   -211.0283408  0.754785E-01  0.100E+00    0.02       1.0  T
   7   -211.1944578 -0.166117E+00  0.213E-01    0.01       1.0  T
   8   -211.1947448 -0.287022E-03  0.209E-01    0.01       1.0  T
   9   -211.1722276  0.225172E-01  0.414E-01    0.02       1.0  T
  10   -211.1902179 -0.179903E-01  0.263E-01    0.02       1.0  T
  11   -211.1957490 -0.553108E-02  0.194E-01    0.01       1.0  T
  12   -211.1963802 -0.631153E-03  0.185E-01    0.01       1.0  T
  13   -211.2003112 -0.393104E-02  0.108E-01    0.01       1.0  T
  14   -211.2020970 -0.178581E-02  0.368E-02    0.01       1.0  T
  15   -211.2023078 -0.210757E-03  0.116E-02    0.01       1.0  T
  16   -211.2023261 -0.183132E-04  0.553E-03    0.01       1.7  T
  17   -211.2023262 -0.157235E-06  0.533E-03    0.01       1.8  T
  18   -211.2023286 -0.235655E-05  0.396E-03    0.01       2.4  T
  19   -211.2023276  0.978791E-06  0.461E-03    0.01       2.0  T
  20   -211.2023295 -0.184390E-05  0.326E-03    0.01       2.9  T
  21   -211.2023309 -0.141857E-05  0.157E-03    0.01       5.9  T
  22   -211.2023312 -0.365146E-06  0.637E-04    0.01      14.6  T
  23   -211.2023313 -0.576282E-07  0.278E-04    0.01      33.5  T
     SCC iter.                  ...        0 min,  0.658 sec
     gradient                   ...        0 min,  0.143 sec
 * total energy  :  -207.8448516 Eh     change       -0.2148808E-01 Eh
   gradient norm :     0.0300016 Eh/α   predicted    -0.2144141E-01 (  -0.22%)
   displ. norm   :     0.8754233 α      lambda       -0.1949907E-01
   maximum displ.:     0.6818728 α      in ANC's #13, #15, #17, ...

........................................................................
.............................. CYCLE   24 ..............................
........................................................................
   1   -211.2375530 -0.211238E+03  0.193E-01    0.00       0.0  T
   2   -210.2359917  0.100156E+01  0.243E+00    0.13       1.0  T
   3   -210.6656038 -0.429612E+00  0.177E+00    0.08       1.0  T
   4   -211.1433477 -0.477744E+00  0.736E-01    0.03       1.0  T
   5   -211.1389584  0.438928E-02  0.760E-01    0.04       1.0  T
   6   -211.2012559 -0.622974E-01  0.481E-01    0.00       1.0  T
   7   -211.2218172 -0.205614E-01  0.329E-01    0.02       1.0  T
   8   -211.2327110 -0.108937E-01  0.216E-01    0.01       1.0  T
   9   -211.2276415  0.506945E-02  0.274E-01    0.02       1.0  T
  10   -211.2357702 -0.812870E-02  0.170E-01    0.01       1.0  T
  11   -211.2382028 -0.243263E-02  0.122E-01    0.01       1.0  T
  12   -211.2404627 -0.225984E-02  0.452E-02    0.01       1.0  T
  13   -211.2407786 -0.315950E-03  0.143E-02    0.01       1.0  T
  14   -211.2407858 -0.712997E-05  0.127E-02    0.01       1.0  T
  15   -211.2408036 -0.178518E-04  0.773E-03    0.01       1.2  T
  16   -211.2408095 -0.584525E-05  0.499E-03    0.01       1.9  T
  17   -211.2408137 -0.422278E-05  0.569E-04    0.01      16.4  T
  18   -211.2408136  0.951623E-07  0.910E-04    0.01      10.2  T
  19   -211.2408130  0.570885E-06  0.202E-03    0.01       4.6  T
  20   -211.2408135 -0.508142E-06  0.108E-03    0.01       8.6  T
  21   -211.2408137 -0.166346E-06  0.462E-04    0.01      20.2  T
     SCC iter.                  ...        0 min,  0.600 sec
     gradient                   ...        0 min,  0.144 sec
 * total energy  :  -207.8622000 Eh     change       -0.1734838E-01 Eh
   gradient norm :     0.0352606 Eh/α   predicted    -0.1722130E-01 (  -0.73%)
   displ. norm   :     0.8946781 α      lambda       -0.1894367E-01
   maximum displ.:     0.6797622 α      in ANC's #13, #15, #17, ...

........................................................................
.............................. CYCLE   25 ..............................
........................................................................
   1   -211.2737297 -0.211274E+03  0.186E-01    0.00       0.0  T
   2   -210.2922676  0.981462E+00  0.241E+00    0.12       1.0  T
   3   -210.8185627 -0.526295E+00  0.158E+00    0.08       1.0  T
[...]
  65: 22.95  66: 16.97  67: 12.14  68: 13.99  69: 13.18  70: 12.45  71: 15.61  72: 13.62
  73: 12.52  74: 12.10  75: 12.13  76: 12.33  77: 12.25  78: 11.60  79: 12.08  80: 12.15
  81: 12.01  82: 12.01  83: 12.68  84: 13.02  85: 13.90  86: 13.27  87:  9.93  88: 10.07
  89:  9.99  90: 15.06  91: 16.94  92: 10.80  93: 15.71  94: 14.31  95: 14.29  96: 15.32
  97:  9.96  98: 10.06  99: 10.25 100: 10.28 101: 10.29 102: 11.92 103: 11.78 104: 11.78
 105: 11.70 106: 11.64 107: 11.73 108: 11.70 109: 11.76 110: 12.01 111: 11.95 112: 10.84
 113: 11.09 114: 11.08 115: 11.41 116: 11.09 117: 11.09 118: 10.75 119: 10.75 120: 11.24
 121: 11.17 122: 11.18 123: 11.18 124: 11.10 125: 11.10 126: 11.41 127: 11.42 128: 11.39
 129: 11.39 130: 11.54 131: 11.55 132: 11.52 133: 11.47 134: 11.48 135: 11.45 136: 11.11
 137: 11.12 138: 10.97 139: 10.98 140: 11.48 141: 11.25 142: 11.18 143: 11.17 144: 11.08
 145: 11.24 146: 11.22 147: 11.34 148: 11.38 149: 11.38 150: 11.09 151: 11.08 152: 11.26
 153:  9.77 154:  5.72 155:  4.53 156: 11.67 157: 11.78 158:  3.88 159:  3.90 160:  3.89
 161:  3.88 162:  4.01 163:  4.00 164:  4.31 165: 10.31 166:  5.14 167:  7.57 168:  5.01
 169:  7.63 170:  3.89 171:  3.88 172:  3.90 173:  3.90 174:  3.90 175:  3.88 176:  4.04
 177:  4.04 178:  3.38 179:  3.38 180:  3.39 181:  3.46 182:  3.47 183:  3.49 184:  3.47
 185:  3.48 186:  3.47 187:  3.52 188:  3.51 189:  3.51 190: 11.59 191: 11.61 192: 12.39
 193: 12.37 194: 12.25 195: 12.11 196: 12.11 197: 12.11 198: 12.20 199: 11.69 200: 11.04
 201:  9.22 202:  9.27 203:  8.55 204:  9.43 205:  9.45 206: 10.64 207:  9.67 208:  9.40
 209:  9.44 210: 10.12 211:  9.05 212:  9.06 213:  8.83 214:  1.56 215:  1.56 216:  1.80
 217:  1.82 218:  1.87 219:  1.85 220:  1.91 221:  1.89 222:  1.87 223:  2.04 224:  2.01
 225:  2.02 226:  5.56 227:  5.66 228:  5.48 229:  5.51 230:  5.51 231:  6.12 232:  7.02
 233:  6.39 234:  6.25 235:  7.26 236:  7.26 237:  8.62 238: 11.20 239:  8.71 240:  8.71
 241: 11.31 242:  8.33 243:  8.33 244:  8.22 245:  9.77 246:  8.89 247:  8.90 248: 11.11
 249: 11.06 250: 10.65 251: 10.65 252: 10.89 253: 10.70 254: 10.25 255: 10.28 256: 10.25
 257: 12.35 258: 11.69 259:  9.98 260:  9.98 261: 11.49 262: 11.59 263:  8.94 264: 12.05
 265: 12.23 266: 11.85 267:  9.66 268:  9.81 269:  9.14 270:  9.13 271:  9.72 272: 11.63
 273: 11.61 274: 11.55 275: 11.52 276: 11.52 277: 11.53 278: 11.57 279: 11.59 280: 11.76
 281: 11.75 282: 11.75 283: 11.47 284: 11.44 285: 11.44 286: 11.70 287: 11.71 288: 11.73
 289: 11.72 290: 11.77 291: 11.71 292: 11.72 293: 11.85 294: 11.85 295: 11.86 296: 11.65
 297: 11.65 298: 11.58 299: 11.57 300: 11.61 301: 11.61 302: 11.64 303: 11.64 304: 11.65
 305: 11.65 306: 11.68 307: 11.77 308: 11.77 309: 11.77 310: 12.01 311: 12.01 312: 12.01
 313: 12.01 314:  1.82 315:  1.82 316:  1.82 317:  1.82 318:  1.82 319:  1.82 320:  1.82
 321:  1.82 322:  1.81 323:  1.81 324:  1.80 325:  1.80 326:  1.82 327:  1.81 328:  1.81
 329:  1.81 330:  1.81 331:  1.81 332:  1.81 333:  1.81 334:  1.98 335:  1.98 336:  1.98
 337:  1.98 338:  1.97 339:  1.97 340:  1.97 341:  1.97 342:  1.97 343:  1.97 344:  1.97
 345:  1.97
 IR intensities (km·mol⁻¹)
   1:  8.25   2: 21.28   3: 14.58   4: 50.58   5:123.39   6:  0.99   7:219.55   8: 44.32
   9:  6.56  10:155.03  11:  6.10  12: 26.08  13: 16.27  14:  1.15  15:  6.01  16: 62.02
  17:  0.52  18: 82.44  19:  5.23  20:  2.46  21:  9.45  22: 29.37  23:  0.00  24:  0.21
  25:  6.97  26: 10.05  27: 12.86  28:503.59  29:  7.69  30:  1.08  31:119.34  32: 51.05
  33:  5.37  34:  1.56  35: 18.61  36:  0.56  37: 10.21  38:176.60  39:  1.11  40:  1.05
  41:  2.42  42:302.93  43: 15.29  44:132.65  45:176.54  46: 26.78  47:210.71  48: 20.12
  49:  3.22  50: 15.59  51:  4.53  52:375.93  53: 14.47  54:156.15  55: 46.53  56:818.07
  57: 13.21  58: 98.51  59:  1.07  60: 45.45  61:  1.42  62:  1.03  63:240.36  64: 57.74
  65: 12.07  66: 85.00  67: 18.16  68:567.78  69: 51.82  70: 36.65  71: 17.42  72: 49.61
  73:  6.98  74: 13.99  75:******  76: 18.43  77: 69.49  78:  5.99  79:254.70  80:721.95
  81:283.10  82:459.43  83:628.72  84: 56.11  85:217.02  86: 27.00  87:  6.79  88:111.41
  89:217.92  90:303.56  91: 30.21  92:  8.81  93:311.15  94: 35.08  95: 18.98  96:617.01
  97:117.01  98:192.86  99:  0.32 100:****** 101:  4.28 102:  0.73 103: 19.33 104: 51.33
 105: 30.58 106:  8.92 107: 31.05 108:  2.87 109: 75.73 110:140.50 111:****** 112: 26.70
 113:418.26 114:****** 115:  1.90 116: 39.33 117:  0.76 118:278.54 119:  3.01 120: 35.86
 121:211.85 122:354.53 123:  0.10 124: 93.29 125: 39.20 126: 22.04 127: 28.35 128:******
 129:254.15 130:113.34 131: 27.88 132: 17.55 133: 49.79 134:  7.48 135:  4.94 136:310.06
 137: 25.11 138:  8.74 139:  4.62 140:  0.03 141:107.31 142: 21.17 143: 11.15 144: 13.71
 145:****** 146: 34.52 147:****** 148: 41.33 149:  3.95 150:106.95 151:187.94 152: 23.87
 153:  9.59 154: 13.69 155: 25.07 156:  0.11 157: 10.56 158: 32.02 159:168.27 160:******
 161:****** 162:193.80 163: 11.75 164:  3.13 165:353.81 166:260.09 167:****** 168:******
 169:****** 170: 38.49 171: 97.02 172: 68.14 173:****** 174:110.21 175:  0.71 176:139.85
 177:137.12 178:****** 179:  5.31 180: 14.00 181:  1.29 182:131.12 183:115.04 184: 76.48
 185:433.91 186:153.65 187:****** 188:242.06 189:477.02 190:****** 191:123.66 192:326.64
 193:****** 194: 79.80 195:****** 196: 92.32 197:174.91 198:121.60 199:169.23 200:277.78
 201:  4.04 202:  0.71 203:  0.02 204: 20.49 205:  6.64 206:273.64 207:****** 208: 11.91
 209: 73.91 210:  0.22 211:  4.28 212:  3.37 213:  4.11 214:  4.44 215: 10.73 216:******
 217:****** 218:  0.12 219:409.47 220: 45.24 221:  3.15 222:218.22 223: 70.22 224:******
 225:431.38 226:****** 227:629.12 228:****** 229: 24.30 230: 67.64 231: 62.97 232:  0.08
 233:185.58 234:118.27 235: 17.68 236: 18.16 237:  6.48 238:367.46 239:  6.37 240:  9.30
 241: 40.17 242:****** 243:386.89 244:268.14 245:  0.12 246:  4.24 247:  5.65 248:******
 249: 18.39 250:  7.18 251:  4.78 252:270.86 253: 47.90 254:  0.25 255:  3.08 256:  0.31
 257: 14.42 258:344.40 259:  0.81 260: 40.79 261:****** 262:130.52 263:  0.31 264: 32.38
 265:  5.41 266:253.34 267:****** 268:  0.17 269: 31.77 270: 28.82 271:****** 272:371.06
 273:****** 274: 12.26 275: 37.78 276: 32.56 277:129.81 278: 18.67 279:****** 280:  5.71
 281: 39.38 282:229.16 283:  0.82 284: 21.78 285:  3.62 286:  0.05 287:830.08 288: 44.11
 289:  5.31 290:  0.10 291:761.85 292:318.24 293: 34.47 294: 13.51 295: 11.36 296: 19.43
 297:  6.62 298:313.37 299:  4.36 300: 18.82 301:171.11 302: 38.18 303: 30.00 304:******
 305: 53.47 306:911.17 307:  1.15 308: 11.25 309:  5.73 310: 31.15 311: 28.48 312:169.72
 313: 10.93 314: 34.35 315: 43.62 316:242.57 317:****** 318:****** 319: 99.59 320:******
 321:225.73 322: 39.58 323:  2.69 324:****** 325:****** 326:****** 327: 67.76 328:354.52
 329:  3.76 330:****** 331:****** 332:240.08 333: 59.84 334:****** 335:****** 336: 88.18
 337:****** 338:****** 339:538.21 340: 50.98 341:104.03 342: 63.44 343:225.27 344:128.61
 345:******
 Raman intensities (amu)
   1:  0.00   2:  0.00   3:  0.00   4:  0.00   5:  0.00   6:  0.00   7:  0.00   8:  0.00
   9:  0.00  10:  0.00  11:  0.00  12:  0.00  13:  0.00  14:  0.00  15:  0.00  16:  0.00
  17:  0.00  18:  0.00  19:  0.00  20:  0.00  21:  0.00  22:  0.00  23:  0.00  24:  0.00
  25:  0.00  26:  0.00  27:  0.00  28:  0.00  29:  0.00  30:  0.00  31:  0.00  32:  0.00
  33:  0.00  34:  0.00  35:  0.00  36:  0.00  37:  0.00  38:  0.00  39:  0.00  40:  0.00
Refinement of some symmetry elements was terminated before convergence was reached.
Some symmetry elements may remain unidentified.
Molecule has no symmetry elements
It seems to be the C1 point group
  41:  0.00  42:  0.00  43:  0.00  44:  0.00  45:  0.00  46:  0.00  47:  0.00  48:  0.00
  49:  0.00  50:  0.00  51:  0.00  52:  0.00  53:  0.00  54:  0.00  55:  0.00  56:  0.00
  57:  0.00  58:  0.00  59:  0.00  60:  0.00  61:  0.00  62:  0.00  63:  0.00  64:  0.00
  65:  0.00  66:  0.00  67:  0.00  68:  0.00  69:  0.00  70:  0.00  71:  0.00  72:  0.00
  73:  0.00  74:  0.00  75:  0.00  76:  0.00  77:  0.00  78:  0.00  79:  0.00  80:  0.00
  81:  0.00  82:  0.00  83:  0.00  84:  0.00  85:  0.00  86:  0.00  87:  0.00  88:  0.00
  89:  0.00  90:  0.00  91:  0.00  92:  0.00  93:  0.00  94:  0.00  95:  0.00  96:  0.00
  97:  0.00  98:  0.00  99:  0.00 100:  0.00 101:  0.00 102:  0.00 103:  0.00 104:  0.00
 105:  0.00 106:  0.00 107:  0.00 108:  0.00 109:  0.00 110:  0.00 111:  0.00 112:  0.00
 113:  0.00 114:  0.00 115:  0.00 116:  0.00 117:  0.00 118:  0.00 119:  0.00 120:  0.00
 121:  0.00 122:  0.00 123:  0.00 124:  0.00 125:  0.00 126:  0.00 127:  0.00 128:  0.00
 129:  0.00 130:  0.00 131:  0.00 132:  0.00 133:  0.00 134:  0.00 135:  0.00 136:  0.00
 137:  0.00 138:  0.00 139:  0.00 140:  0.00 141:  0.00 142:  0.00 143:  0.00 144:  0.00
 145:  0.00 146:  0.00 147:  0.00 148:  0.00 149:  0.00 150:  0.00 151:  0.00 152:  0.00
 153:  0.00 154:  0.00 155:  0.00 156:  0.00 157:  0.00 158:  0.00 159:  0.00 160:  0.00
 161:  0.00 162:  0.00 163:  0.00 164:  0.00 165:  0.00 166:  0.00 167:  0.00 168:  0.00
 169:  0.00 170:  0.00 171:  0.00 172:  0.00 173:  0.00 174:  0.00 175:  0.00 176:  0.00
 177:  0.00 178:  0.00 179:  0.00 180:  0.00 181:  0.00 182:  0.00 183:  0.00 184:  0.00
 185:  0.00 186:  0.00 187:  0.00 188:  0.00 189:  0.00 190:  0.00 191:  0.00 192:  0.00
 193:  0.00 194:  0.00 195:  0.00 196:  0.00 197:  0.00 198:  0.00 199:  0.00 200:  0.00
 201:  0.00 202:  0.00 203:  0.00 204:  0.00 205:  0.00 206:  0.00 207:  0.00 208:  0.00
 209:  0.00 210:  0.00 211:  0.00 212:  0.00 213:  0.00 214:  0.00 215:  0.00 216:  0.00
 217:  0.00 218:  0.00 219:  0.00 220:  0.00 221:  0.00 222:  0.00 223:  0.00 224:  0.00
 225:  0.00 226:  0.00 227:  0.00 228:  0.00 229:  0.00 230:  0.00 231:  0.00 232:  0.00
 233:  0.00 234:  0.00 235:  0.00 236:  0.00 237:  0.00 238:  0.00 239:  0.00 240:  0.00
 241:  0.00 242:  0.00 243:  0.00 244:  0.00 245:  0.00 246:  0.00 247:  0.00 248:  0.00
 249:  0.00 250:  0.00 251:  0.00 252:  0.00 253:  0.00 254:  0.00 255:  0.00 256:  0.00
 257:  0.00 258:  0.00 259:  0.00 260:  0.00 261:  0.00 262:  0.00 263:  0.00 264:  0.00
 265:  0.00 266:  0.00 267:  0.00 268:  0.00 269:  0.00 270:  0.00 271:  0.00 272:  0.00
 273:  0.00 274:  0.00 275:  0.00 276:  0.00 277:  0.00 278:  0.00 279:  0.00 280:  0.00
 281:  0.00 282:  0.00 283:  0.00 284:  0.00 285:  0.00 286:  0.00 287:  0.00 288:  0.00
 289:  0.00 290:  0.00 291:  0.00 292:  0.00 293:  0.00 294:  0.00 295:  0.00 296:  0.00
 297:  0.00 298:  0.00 299:  0.00 300:  0.00 301:  0.00 302:  0.00 303:  0.00 304:  0.00
 305:  0.00 306:  0.00 307:  0.00 308:  0.00 309:  0.00 310:  0.00 311:  0.00 312:  0.00
 313:  0.00 314:  0.00 315:  0.00 316:  0.00 317:  0.00 318:  0.00 319:  0.00 320:  0.00
 321:  0.00 322:  0.00 323:  0.00 324:  0.00 325:  0.00 326:  0.00 327:  0.00 328:  0.00
 329:  0.00 330:  0.00 331:  0.00 332:  0.00 333:  0.00 334:  0.00 335:  0.00 336:  0.00
 337:  0.00 338:  0.00 339:  0.00 340:  0.00 341:  0.00 342:  0.00 343:  0.00 344:  0.00
 345:  0.00
 output can be read by thermo (or use thermo option).
 writing <g98.out> molden fake output.
 recommended (thermochemical) frequency scaling factor: 1.0
           -------------------------------------------------
          |             Thermodynamic Functions             |
           -------------------------------------------------

c1  symmetry found (for desy threshold:  0.10E+00) used in thermo
 inverting freq            1   12.691555360761011     
 inverting freq            2   12.518816948336880     
 inverting freq            3   5.0983205389319695     

          ...................................................
          :                      SETUP                      :
          :.................................................:
          :  # frequencies                         339      :
          :  # imaginary freq.                       0      :
          :  linear?                             false      :
          :  only rotor calc.                    false      :
          :  symmetry                               c1      :
          :  rotational number                       1      :
          :  scaling factor                  1.0000000      :
          :  rotor cutoff                   50.0000000 cm⁻¹ :
          :  imag. cutoff                  -20.0000000 cm⁻¹ :
          :.................................................:

    mode    ω/cm⁻¹     T·S(HO)/kcal·mol⁻¹    T·S(FR)/kcal·mol⁻¹   T·S(vib)
   ------------------------------------------------------------------------
       1     12.69    -2.24731 (  0.41%)    -1.46272 ( 99.59%)    -1.46596
       2     12.52    -2.25542 (  0.39%)    -1.46678 ( 99.61%)    -1.46987
       3      5.10    -2.78759 (  0.01%)    -1.73289 ( 99.99%)    -1.73301
       4      2.73    -3.15696 (  0.00%)    -1.91758 (100.00%)    -1.91759
       5      3.83    -2.95710 (  0.00%)    -1.81765 (100.00%)    -1.81769
       6      4.37    -2.87851 (  0.01%)    -1.77835 ( 99.99%)    -1.77842
       7      9.48    -2.41996 (  0.13%)    -1.54907 ( 99.87%)    -1.55019
       8     11.45    -2.30842 (  0.27%)    -1.49328 ( 99.73%)    -1.49552
       9     12.53    -2.25467 (  0.39%)    -1.46640 ( 99.61%)    -1.46950
      10     20.84    -1.95356 (  2.93%)    -1.31577 ( 97.07%)    -1.33446
      11     23.47    -1.88330 (  4.63%)    -1.28061 ( 95.37%)    -1.30851
      12     23.93    -1.87189 (  4.98%)    -1.27489 ( 95.02%)    -1.30464
      13     29.84    -1.74111 ( 11.26%)    -1.20941 ( 88.74%)    -1.26930
      14     37.42    -1.60741 ( 23.88%)    -1.14242 ( 76.12%)    -1.25344
      15     40.80    -1.55626 ( 30.72%)    -1.11677 ( 69.28%)    -1.25179
      16     48.93    -1.44902 ( 47.84%)    -1.06294 ( 52.16%)    -1.24766
      17     52.23    -1.41062 ( 54.35%)    -1.04364 ( 45.65%)    -1.24308
      18     83.26    -1.13673 ( 88.49%)    -0.90550 ( 11.51%)    -1.11012
      19     96.58    -1.05017 ( 93.30%)    -0.86153 (  6.70%)    -1.03752
      20    100.72    -1.02573 ( 94.27%)    -0.84908 (  5.73%)    -1.01562
      21    100.93    -1.02455 ( 94.32%)    -0.84848 (  5.68%)    -1.01454
      22    102.45    -1.01584 ( 94.63%)    -0.84404 (  5.37%)    -1.00661
      23    106.71    -0.99222 ( 95.40%)    -0.83197 (  4.60%)    -0.98485
      24    117.58    -0.93614 ( 96.83%)    -0.80324 (  3.17%)    -0.93193
      25    119.34    -0.92755 ( 97.01%)    -0.79883 (  2.99%)    -0.92370
      26    119.42    -0.92717 ( 97.02%)    -0.79864 (  2.98%)    -0.92334
      27    122.96    -0.91034 ( 97.34%)    -0.78998 (  2.66%)    -0.90714
      28    144.90    -0.81637 ( 98.60%)    -0.74134 (  1.40%)    -0.81532
      29    148.95    -0.80071 ( 98.75%)    -0.73318 (  1.25%)    -0.79986
      30    154.19    -0.78113 ( 98.91%)    -0.72294 (  1.09%)    -0.78049
      31    161.18    -0.75609 ( 99.08%)    -0.70981 (  0.92%)    -0.75567
      32    179.29    -0.69642 ( 99.40%)    -0.67826 (  0.60%)    -0.69631
      33    189.16    -0.66668 ( 99.51%)    -0.66238 (  0.49%)    -0.66666
      34    189.40    -0.66597 ( 99.52%)    -0.66200 (  0.48%)    -0.66596
      35    189.61    -0.66535 ( 99.52%)    -0.66167 (  0.48%)    -0.66533
      36    216.41    -0.59299 ( 99.72%)    -0.62251 (  0.28%)    -0.59307
      37    225.42    -0.57099 ( 99.76%)    -0.61043 (  0.24%)    -0.57109
      38    226.29    -0.56892 ( 99.76%)    -0.60928 (  0.24%)    -0.56901
      39    226.58    -0.56824 ( 99.76%)    -0.60891 (  0.24%)    -0.56834
      40    226.80    -0.56772 ( 99.76%)    -0.60862 (  0.24%)    -0.56782
      41    226.84    -0.56761 ( 99.76%)    -0.60856 (  0.24%)    -0.56771
      42    231.18    -0.55747 ( 99.78%)    -0.60295 (  0.22%)    -0.55757
      43    231.63    -0.55643 ( 99.78%)    -0.60238 (  0.22%)    -0.55653
      44    240.14    -0.53722 ( 99.81%)    -0.59169 (  0.19%)    -0.53732
      45    243.29    -0.53031 ( 99.82%)    -0.58782 (  0.18%)    -0.53041
      46    243.35    -0.53018 ( 99.82%)    -0.58775 (  0.18%)    -0.53029
      47    245.88    -0.52473 ( 99.83%)    -0.58469 (  0.17%)    -0.52483
      48    248.96    -0.51816 ( 99.84%)    -0.58100 (  0.16%)    -0.51826
      49    249.14    -0.51778 ( 99.84%)    -0.58079 (  0.16%)    -0.51788
      50    250.02    -0.51594 ( 99.84%)    -0.57975 (  0.16%)    -0.51604
      51    251.29    -0.51326 ( 99.84%)    -0.57824 (  0.16%)    -0.51336
      52    260.84    -0.49378 ( 99.87%)    -0.56720 (  0.13%)    -0.49388
      53    263.60    -0.48831 ( 99.87%)    -0.56408 (  0.13%)    -0.48841
      54    265.23    -0.48511 ( 99.87%)    -0.56224 (  0.13%)    -0.48521
      55    265.83    -0.48394 ( 99.88%)    -0.56158 (  0.12%)    -0.48404
      56    266.29    -0.48306 ( 99.88%)    -0.56107 (  0.12%)    -0.48315
      57    266.64    -0.48238 ( 99.88%)    -0.56068 (  0.12%)    -0.48248
      58    267.04    -0.48159 ( 99.88%)    -0.56023 (  0.12%)    -0.48169
      59    291.77    -0.43639 ( 99.91%)    -0.53399 (  0.09%)    -0.43647
      60    294.03    -0.43251 ( 99.92%)    -0.53171 (  0.08%)    -0.43259
   ------------------------------------------------------------------------

   temp. (K)  partition function   enthalpy   heat capacity  entropy
                                   cal/mol     cal/K/mol   cal/K/mol   J/K/mol
 298.15  VIB  0.147E+35            39594.086    258.397    249.173
         ROT  0.819E+09              888.752      2.981     43.768
         INT  0.121E+44            40482.838    261.378    292.941
         TR   0.399E+29             1481.254      4.968     47.088
         TOT                       41964.0920   266.3460   340.0288  1422.6807

       T/K    H(0)-H(T)+PV         H(T)/Eh          T*S/Eh         G(T)/Eh
   ------------------------------------------------------------------------
    298.15    0.668740E-01    0.861977E+00    0.161559E+00    0.700419E+00
   ------------------------------------------------------------------------

         :::::::::::::::::::::::::::::::::::::::::::::::::::::
         ::                  THERMODYNAMIC                  ::
         :::::::::::::::::::::::::::::::::::::::::::::::::::::
         :: total free energy        -207.357923911263 Eh   ::
         ::.................................................::
         :: total energy             -208.058342596102 Eh   ::
         :: zero point energy           0.795103324945 Eh   ::
         :: G(RRHO) w/o ZPVE           -0.094684640106 Eh   ::
         :: G(RRHO) contrib.            0.700418684839 Eh   ::
         :::::::::::::::::::::::::::::::::::::::::::::::::::::
imag cut-off (cm-1) :    5.00
 found            3  significant imaginary frequencies
 writing imag mode distorted coords to xtbhess.xyz
 for further optimization.

optimized geometry written to: xtbopt.xyz


           -------------------------------------------------
          | TOTAL ENERGY             -208.058342596102 Eh   |
          | TOTAL ENTHALPY           -207.196365233805 Eh   |
          | TOTAL FREE ENERGY        -207.357923911263 Eh   |
          | GRADIENT NORM               0.000252584460 Eh/α |
          | HOMO-LUMO GAP               0.000302500176 eV   |
           -------------------------------------------------

------------------------------------------------------------------------
 * finished run on 2021/11/19 at 11:33:22.601     
------------------------------------------------------------------------
 total:
 * wall-time:     0 d,  0 h,  6 min,  5.186 sec
 *  cpu-time:     0 d,  0 h,  6 min,  5.176 sec
 * ratio c/w:     1.000 speedup
 SCF:
 * wall-time:     0 d,  0 h,  0 min,  2.541 sec
 *  cpu-time:     0 d,  0 h,  0 min,  2.541 sec
 * ratio c/w:     1.000 speedup
 ANC optimizer:
 * wall-time:     0 d,  0 h,  0 min, 53.794 sec
 *  cpu-time:     0 d,  0 h,  0 min, 53.778 sec
 * ratio c/w:     1.000 speedup
 analytical hessian:
 * wall-time:     0 d,  0 h,  5 min,  8.064 sec
 *  cpu-time:     0 d,  0 h,  5 min,  8.070 sec
 * ratio c/w:     1.000 speedup

