115
 energy: -206.996213396252 gnorm: 0.639166917698 xtb: 6.4.1 (bd6e46d)
Co       12.97627000000000    0.03373500000000   -0.00892400000000
C        15.30526100000000   -3.11305800000000    1.31376500000000
C        16.22136800000000   -2.16885000000000    1.26348300000000
C        15.81018900000000   -1.11494600000000    0.34219100000000
C        16.42905900000000    0.00940000000000   -0.00421900000000
C        15.72501700000000    1.22934800000000   -0.36832400000000
C        16.05312700000000    2.18940300000000   -1.21579800000000
C        15.01834800000000    3.20568800000000   -1.23269600000000
C        14.08208000000000    2.82922600000000   -0.38580400000000
N        14.48407000000000    1.59621500000000    0.17801300000000
C        12.82100500000000    3.47422500000000   -0.00665200000000
C        11.72578800000000    2.83944300000000    0.34410800000000
C        10.65216200000000    3.15739900000000    1.31313600000000
C         9.81460000000000    2.16064500000000    1.23597000000000
C        10.25289700000000    1.15696200000000    0.25551800000000
N        11.35783500000000    1.59581500000000   -0.22877400000000
C         9.64206200000000   -0.09630900000000   -0.15803000000000
C        10.30622300000000   -1.20081500000000   -0.41245500000000
C         9.93237400000000   -2.26375700000000   -1.36998200000000
C        10.88112100000000   -3.15751300000000   -1.28096300000000
C        11.86684500000000   -2.72006300000000   -0.29808500000000
N        11.51379900000000   -1.57425800000000    0.19871200000000
C        13.09773300000000   -3.37613300000000    0.14763600000000
C        14.22077500000000   -2.73027200000000    0.41475700000000
N        14.54937500000000   -1.48283100000000   -0.18364700000000
H        15.36552300000000   -4.02283900000000    1.93131100000000
H        17.13769500000000   -2.20880000000000    1.84153100000000
H        16.98049300000000    2.20619800000000   -1.81694100000000
H        15.03524700000000    4.11037700000000   -1.84531700000000
H        12.77328200000000    4.56902800000000   -0.01043000000000
H        10.59934100000000    4.03612400000000    1.93812800000000
H         8.90296900000000    2.12497500000000    1.85329400000000
H         8.54381200000000   -0.09339800000000   -0.25730100000000
H         9.06351800000000   -2.31622200000000   -2.01893200000000
H        10.87827500000000   -4.07382100000000   -1.87972200000000
H        13.06225100000000   -4.47193500000000    0.25956100000000
Co       42.86170100000000   -0.01364100000000   -0.01335700000000
C        40.53271000000000    2.83315100000000    1.87014800000000
C        39.61660200000000    1.91466200000000    1.64557400000000
C        40.02778200000000    1.04996500000000    0.54476000000000
C        39.40891100000000    0.00940000000000   -0.00421900000000
C        40.11295400000000   -1.12182500000000   -0.58832200000000
C        39.78484300000000   -1.90799700000000   -1.59918900000000
C        40.81962300000001   -2.90350600000000   -1.80432900000000
C        41.75589100000000   -2.69069000000000   -0.90229900000000
N        41.35390100000000   -1.58367800000000   -0.11952700000000
C        43.01696500000000   -3.39483100000000   -0.64938500000000
C        44.11218300000000   -2.83613800000000   -0.18695200000000
C        45.18580800000000   -3.32834300000000    0.70627000000000
C        46.02337100000000   -2.33457600000000    0.81535500000000
C        45.58507300000000   -1.16642800000000    0.03812000000000
N        44.48013500000000   -1.50782000000000   -0.51917900000000
C        46.19590800000000    0.14180800000000   -0.13575000000000
C        45.53174800000001    1.27434100000000   -0.18085600000000
C        45.90559600000000    2.49646700000000   -0.92457100000000
C        44.95684900000000    3.35819400000000   -0.67129300000000
C        43.97112500000000    2.74599900000000    0.21337100000000
N        44.32417100000000    1.52792100000000    0.48898100000000
C        42.74023700000000    3.30799400000000    0.77306500000000
C        41.61719600000000    2.62378900000000    0.91573300000000
N        41.28859600000000    1.50901400000000    0.09629800000000
H        40.47244800000000    3.61257600000000    2.64575200000000
H        38.70027500000000    1.84668100000000    2.22100000000000
H        38.85747800000001   -1.81298000000000   -2.19301300000000
H        40.80272400000000   -3.67884100000000   -2.57414900000000
H        43.06468800000000   -4.46992900000000   -0.85619900000000
H        45.23863000000001   -4.30776000000000    1.15739700000000
H        46.93500100000000   -2.41404800000000    1.42858000000000
H        47.29415900000000    0.15736300000000   -0.23383700000000
H        46.77445200000000    2.66841000000000   -1.55252400000000
H        44.95969500000000    4.36967500000000   -1.08967000000000
H        42.77572000000001    4.36401000000000    1.08633400000000
C        19.32376300000000    0.00736400000000   -0.00533100000000
C        20.53174000000000    0.01481900000000   -0.00363600000000
C        21.95050700000000    0.01551600000000    0.00150100000000
C        23.16602400000000    0.00736400000000   -0.00533100000000
C        32.67391300000000    0.00736400000000   -0.00533100000000
C        33.88189000000000    0.01481900000000   -0.00363600000000
C        35.30065800000000    0.01551600000000    0.00150100000000
C        36.51617400000000    0.00736400000000   -0.00533100000000
Co       27.95460500000000    0.02750000000000    0.00680800000000
C        25.67479400000000   -3.23394800000000   -0.90285800000000
C        24.71858500000000   -2.33459700000000   -1.00488500000000
C        25.11095900000000   -1.17229200000000   -0.20236900000000
C        24.47584300000000   -0.02102000000000    0.00989700000000
C        25.16130000000000    1.25358000000000    0.23612700000000
C        24.82601000000000    2.33218000000000    0.94036700000000
C        25.85055100000000    3.35149700000000    0.84978600000000
C        26.80114800000000    2.85457200000000    0.07642100000000
N        26.42415400000001    1.53796700000000   -0.33972200000000
C        28.04828800000000    3.46627300000000   -0.34044500000000
C        29.14983900000000    2.79901600000000   -0.67221600000000
C        30.14338600000000    3.05100100000000   -1.70638600000000
C        31.03726900000000    2.09014200000000   -1.60490200000000
C        30.65757100000000    1.17825800000000   -0.50092500000000
N        29.56265600000000    1.62757700000000    0.00644200000000
C        31.31477800000000   -0.02102000000000    0.00989700000000
C        30.69136600000000   -1.09020200000000    0.47141400000000
C        31.07007900000000   -2.02231700000000    1.54689000000000
C        30.12941000000000   -2.93646300000000    1.63275600000000
C        29.12110900000000   -2.64068400000000    0.63532900000000
N        29.45888400000000   -1.58730700000000   -0.01396600000000
C        27.86871600000000   -3.34769200000000    0.30413500000000
C        26.75483900000000   -2.75099500000000   -0.04320600000000
N        26.37272700000000   -1.46823800000000    0.37447700000000
H        25.67513900000000   -4.22502100000000   -1.39409300000000
H        23.81005100000000   -2.45629100000000   -1.58603300000000
H        23.90115700000000    2.45053100000000    1.51729300000000
H        25.87784600000000    4.34066100000000    1.30643600000000
H        28.13422800000000    4.56365100000000   -0.40246800000000
H        30.17605800000000    3.85721700000000   -2.43321000000000
H        31.93033000000000    1.97717400000000   -2.23867600000000
H        31.98482900000000   -1.94791100000000    2.15706000000000
H        30.14845700000000   -3.75007100000000    2.34102300000000
H        27.90720000000000   -4.44765100000000    0.36317200000000
115
 energy: -207.211045655390 gnorm: 0.344646974791 xtb: 6.4.1 (bd6e46d)
Co       12.99102191592373    0.02978871608147   -0.00812487919895
C        15.30742774900295   -3.12266953396989    1.30159016065506
C        16.23875092968635   -2.16848786476716    1.25772289537215
C        15.80318373632096   -1.11543862628196    0.34999404110090
C        16.40197266659818    0.03449246699763   -0.00456894183055
C        15.70753625994008    1.22472049741949   -0.36098153021468
C        16.06697503629908    2.22096188686704   -1.23388065586784
C        15.05269596536330    3.20752934956565   -1.24602799297489
C        14.07507320456321    2.79886713634970   -0.38003108545179
N        14.44568887854946    1.56096546353915    0.17230009223815
C        12.84354092077373    3.46948270364485   -0.00622408521999
C        11.71709786062364    2.81937705436122    0.34463059844307
C        10.65082676778531    3.16586427903592    1.29110218504319
C         9.78450880556430    2.15353522287049    1.23744135477144
C        10.24985365253033    1.15506899170546    0.27613434908304
N        11.40762526152350    1.55909432941159   -0.19658751341551
C         9.62896355917212   -0.07176370018262   -0.15019675657722
C        10.31138482520982   -1.20194161434916   -0.41860671235382
C         9.92287962053109   -2.26564916547039   -1.35170220108320
C        10.88834111695345   -3.18240675627927   -1.27553544902021
C        11.87954694037797   -2.72720904832511   -0.30902498357693
N        11.53810585291918   -1.53692585595136    0.15960005767476
C        13.07809478356514   -3.38183705380321    0.13893950651450
C        14.22483549061850   -2.71098364064061    0.41904103307680
N        14.53016706854254   -1.46478100952507   -0.14296908971626
H        15.35468355006800   -4.01661363768308    1.92019831197095
H        17.14457220002136   -2.19646636327527    1.83755014584881
H        16.97861823988578    2.21852849721120   -1.81953660818261
H        15.04531311747695    4.10618307183575   -1.84676324060278
H        12.79562949710784    4.56180894604358   -0.00115758858812
H        10.60859111938401    4.03413993847217    1.92845202427070
H         8.89563945554112    2.11313116612926    1.85201392592528
H         8.54487822514185   -0.08135217984858   -0.26460143495300
H         9.06568062041233   -2.30432714416784   -2.00816678472906
H        10.89259755701724   -4.08029676679176   -1.87484311594816
H        13.05569119779468   -4.46654488936732    0.25948394651608
Co       42.84696902860499   -0.00991009621905   -0.01185005845117
C        40.53056101192289    2.84485254568126    1.85997224830718
C        39.59922826537822    1.91538372537332    1.63983416506310
C        40.03472989912533    1.04901019769311    0.55252310964034
C        39.43566916528612   -0.01525180154144   -0.00902336313621
C        40.13040948299270   -1.11864130685871   -0.58025951135270
C        39.77099343938484   -1.93564728908944   -1.62276702763868
C        40.78530423562056   -2.90285642346597   -1.81775920811887
C        41.76289782651584   -2.66196165095015   -0.89100793392658
N        41.39224046798665   -1.54795671669363   -0.11865202947036
C        42.99442229759116   -3.39026897564045   -0.64808235190518
C        44.12087067500064   -2.81651812959046   -0.18270595336910
C        45.18713613848723   -3.33257019213908    0.68304120064337
C        46.05346009989603   -2.32785140988883    0.81811779050355
C        45.58812885018327   -1.16839595283700    0.05872709341668
N        44.43034736625192   -1.47772028899882   -0.48074191117745
C        46.20901040828463    0.11623219233839   -0.13260535016150
C        45.52658629811047    1.27658890837178   -0.18669612892095
C        45.91508622052979    2.49493008924245   -0.90625654961251
C        44.94962523943803    3.38164959270950   -0.66133571289524
C        43.95842145109090    2.75505778611725    0.20395036316731
N        44.29986530176114    1.49849205099950    0.44362368472977
C        42.75987223446782    3.31522234442765    0.76557065240688
C        41.61312216669481    2.60404685742013    0.91635704497891
N        41.30776413996045    1.48370733040386    0.13296546925861
H        40.48328946186831    3.60852151672256    2.63367776098203
H        38.69339992530291    1.83532830383675    2.21480388437328
H        38.85936379771709   -1.82459417395393   -2.19786119604046
H        40.79267166998432   -3.67445939977415   -2.57480062798210
H        43.04235222084620   -4.46457009306617   -0.84576318407328
H        45.22937881447937   -4.30401528814661    1.14825547073947
H        46.94233275758794   -2.40217052538462    1.42951784929528
H        47.29309592732229    0.14688202882186   -0.24324163732286
H        46.77228710651491    2.65472256501625   -1.54415144605967
H        44.94536880324276    4.37513303953433   -1.08367302592494
H        42.78227689902940    4.35873550993020    1.08525589704485
C        19.30889445490151    0.00780325760059   -0.00322828842604
C        20.53177398738487    0.01511590395655   -0.00421952330503
C        21.91594872499849    0.01702155327018    0.00139607016680
C        23.13649731550147    0.01903341540658   -0.00847136418964
C        32.69872535731456    0.01821537524899   -0.00014014212864
C        33.91678199339012    0.01605774382917   -0.00215873388691
C        35.30370819284180    0.01441028100677    0.00125032660797
C        36.52591900440238    0.00659112317012   -0.00460998913759
Co       27.94224754481237    0.02913143584332    0.00587059342841
C        25.67503946611774   -3.25535232158582   -0.89194590471747
C        24.71292740082489   -2.33458660926303   -0.99262920972576
C        25.14399515993438   -1.18552559278130   -0.20796543405586
C        24.49442481038879    0.00195633271778    0.00693435013577
C        25.19755334263762    1.25824138550713    0.23442443713716
C        24.81616531400022    2.36155640779699    0.95138256887906
C        25.82332313323630    3.35299320782613    0.85653732626991
C        26.81386696313188    2.82970856414340    0.07388019043828
N        26.46461983574795    1.51265671561827   -0.31620630435198
C        28.03130929219267    3.46366891686083   -0.34323220344559
C        29.15756354407378    2.78398380269647   -0.67269474996982
C        30.15362345308989    3.05984052891347   -1.68848767580889
C        31.06136220919655    2.07743177217881   -1.60219434413091
C        30.65463927197441    1.17357695671826   -0.52273104533673
N        29.51338902561604    1.59276286582767   -0.02247434316483
C        31.32156146165664   -0.00294321936302   -0.00026667524561
C        30.67305090492490   -1.10124008717350    0.48049758259838
C        31.08314481746452   -2.02298832494284    1.53271535175513
C        30.12521647651516   -2.95563499422798    1.62974600260306
C        29.10729433839542   -2.64471180667048    0.64724692170527
N        29.42873389660133   -1.53673713615182    0.00892847716837
C        27.89037961018413   -3.35535792978924    0.31470878551020
C        26.74488123969532   -2.73728189860190   -0.05180860512534
N        26.40137316083111   -1.44344708503559    0.32749433505145
H        25.68164618308150   -4.22224057070014   -1.38870866226067
H        23.81141076520191   -2.44255901389850   -1.57879995105181
H        23.90009849497697    2.45645823884107    1.51863729781052
H        25.86282425764701    4.33351995535943    1.30921806616826
H        28.11043011544619    4.55515729170066   -0.41111622918105
H        30.16719776141017    3.85525013655015   -2.42133895034388
H        31.93277143788347    1.96790333143460   -2.23448264119239
H        31.97841312185631   -1.94117312538906    2.14527318501556
H        30.13852253381560   -3.75841209940970    2.34098697803275
H        27.91598588145196   -4.44485842230199    0.35917066769035
115
 energy: -207.343658404124 gnorm: 0.144325034735 xtb: 6.4.1 (bd6e46d)
Co       13.00308559563074    0.02909169712841   -0.00483392380648
C        15.30590069484644   -3.12621730192613    1.28660392588758
C        16.25213453211291   -2.16622369790505    1.24951099817560
C        15.78942934025038   -1.11250628028066    0.36506487487016
C        16.36072542416427    0.06252192261681   -0.00655249434335
C        15.68714651940995    1.21387488492952   -0.36011446913206
C        16.07421982327073    2.25181004712107   -1.24235924823536
C        15.08798098123857    3.20464805271525   -1.24487153795821
C        14.06501337080444    2.76395367472858   -0.37360413281922
N        14.40430590013375    1.52262860551867    0.14382860817506
C        12.86895772126093    3.45516686056779   -0.00638456333896
C        11.72110911287550    2.78602083736082    0.35607004652151
C        10.65704029801329    3.16520723371483    1.26318240054476
C         9.75943486759293    2.15035041110643    1.22668680261236
C        10.24866509462947    1.14984013385240    0.29933307545355
N        11.46547750595621    1.51519225559291   -0.14770427322383
C         9.62403709829262   -0.04829555131858   -0.14048886629993
C        10.32653004213621   -1.19420349599854   -0.43638361248235
C         9.92119593751603   -2.26333538621615   -1.33002247525900
C        10.89150013720804   -3.20250239159874   -1.26045886874139
C        11.89412005576378   -2.72949834567551   -0.32220273804396
N        11.56872222818446   -1.48623608040167    0.10440353551194
C        13.05933965087662   -3.37915602562479    0.12910516963398
C        14.22155322099772   -2.68217925525565    0.42989299565803
N        14.50401666786848   -1.44325393208470   -0.09342791941520
H        15.34231940546180   -4.01049498487197    1.90227663646713
H        17.15376848045661   -2.18255895112300    1.82710985241176
H        16.97669016232372    2.22839705630487   -1.81642472349622
H        15.05067996678929    4.09995447993585   -1.83939962344459
H        12.81819238119709    4.54466972677658   -0.00018068918400
H        10.61827537030996    4.02832173048645    1.90911388326330
H         8.88770881238153    2.10116374199233    1.84286645765381
H         8.54948802840813   -0.07377289692841   -0.26248510925097
H         9.06979651763708   -2.29218876255383   -1.99021579307772
H        10.90673394310052   -4.08779997965017   -1.86240911431492
H        13.05519976796066   -4.45655331210644    0.25202709802844
Co       42.83495195798722   -0.00983634799899   -0.00851309814515
C        40.53211087070684    2.85113827083543    1.84588142939492
C        39.58583682570586    1.91470273228837    1.63128026403562
C        40.04846631854053    1.04330025590264    0.56677888803102
C        39.47638918219570   -0.04243332802718   -0.01612494034318
C        40.15081665694968   -1.10813571941963   -0.57741515296140
C        39.76373997749673   -1.96440838810430   -1.63676007063982
C        40.75005956675712   -2.90027608868785   -1.81608520808794
C        41.77294828371857   -2.62895065278396   -0.87820559950409
N        41.43356619438783   -1.50498597530740   -0.13957111627481
C        42.96898362096466   -3.37621970755529   -0.64555849622354
C        44.11685161272588   -2.78587653947540   -0.16525119013151
C        45.18090502581917   -3.32673050145500    0.65572303373966
C        46.07852949539824   -2.32269592976800    0.80813887313307
C        45.58935033373316   -1.16756733565491    0.08248839643682
N        44.37249775195325   -1.44366854659990   -0.42458100404813
C        46.21395630589880    0.09136458332322   -0.12743520450042
C        45.51145811251006    1.27228177366334   -0.20563430513532
C        45.91676000267605    2.48860802177762   -0.88541270862288
C        44.94645294152227    3.39859069003359   -0.64280991060057
C        43.94384079986734    2.75977649565590    0.19139582601453
N        44.26923816487498    1.45892053715894    0.37995154789993
C        42.77860970682088    3.31445297920062    0.75536293981304
C        41.61637206462314    2.57379529483046    0.92164363963789
N        41.33382842660262    1.45337261538832    0.17769201171108
H        40.49565786426444    3.60584801602858    2.61490711561119
H        38.68420893702467    1.82364906699963    2.20195010044765
H        38.86131572461158   -1.83488365997195   -2.19664433810741
H        40.78730833522756   -3.66972511540421   -2.56641062660280
H        43.01981424207216   -4.44793789421810   -0.84165143864848
H        45.21968640644820   -4.29469117246896    1.13034559706393
H        46.95026400140540   -2.38869839793788    1.42274191991091
H        47.28850090135582    0.13904449614576   -0.24257617012773
H        46.76816295018513    2.63944834634242   -1.52879360124287
H        44.93122183126217    4.38018560825151   -1.07009905385158
H        42.78277331991661    4.35032749193269    1.07605148807307
C        19.30114149069638    0.00945634589890   -0.00249887575909
C        20.53453883152651    0.01532396190085   -0.00497041699120
C        21.88991687940356    0.01674239576165    0.00267672687529
C        23.11880286517419    0.03015355292336   -0.00868843122746
C        32.71974258781882    0.02093970991213   -0.00053098184897
C        33.94634785249350    0.01540613442992    0.00060022251019
C        35.30386728582891    0.01368001743214   -0.00001424636558
C        36.53520191343954    0.00552402477776   -0.00414454401463
Co       27.93441649180167    0.03129198639151    0.00332544075951
C        25.68071423749699   -3.26999540952121   -0.87806239337046
C        24.71237138292255   -2.32832645276543   -0.97672733047940
C        25.17701027885600   -1.18784150777552   -0.22053480246804
C        24.50826876586720    0.02861694831825    0.00528226231799
C        25.23559285012024    1.25557490078224    0.23419357015573
C        24.80998399232820    2.38931980823261    0.95298733172745
C        25.79554234140441    3.34829562264815    0.85323301972507
C        26.82989591635113    2.79975765149871    0.07360849120068
N        26.50609484059501    1.48291137031619   -0.26858309752617
C        28.01136875991116    3.45334597865805   -0.34526653698515
C        29.15545029061122    2.75525099381732   -0.68206122387067
C        30.15876476042694    3.06100704375322   -1.66622535040371
C        31.08148474889156    2.06512926816789   -1.58850828935432
C        30.65254698170029    1.16351514910348   -0.54632988614328
N        29.45725191585075    1.54878303114704   -0.06499276864839
C        31.33041723089096    0.01397912825512   -0.01163347312908
C        30.65000207998766   -1.10109697412186    0.49669630207172
C        31.08783150293913   -2.01782266921829    1.51407776138772
C        30.12193428225034   -2.97125425820237    1.61500717796468
C        29.09135438393454   -2.64322847302325    0.66106927414353
N        29.39616564067311   -1.47138154074955    0.04835573143952
C        27.91141946120825   -3.35250150638376    0.32522203696061
C        26.74513546859747   -2.71829265184008   -0.06998774609665
N        26.43189676721737   -1.41549405422725    0.26625104676153
H        25.68856972567049   -4.22062255989200   -1.37562200243890
H        23.81367792508632   -2.42582197346779   -1.56308559671365
H        23.89897370273492    2.45908284958701    1.51351141458061
H        25.84922735697905    4.32328099711822    1.30529128777494
H        28.08477202632552    4.53927554963180   -0.41291248863176
H        30.15800388715777    3.85276213632836   -2.39976786139076
H        31.93659721754850    1.95876400005209   -2.22344823248213
H        31.97061739065399   -1.93582033155221    2.12650396207498
H        30.12740319860882   -3.76709176145955    2.33199558055143
H        27.91952111875108   -4.43552312849070    0.36136791320123
115
 energy: -207.418456852556 gnorm: 0.091558621515 xtb: 6.4.1 (bd6e46d)
Co       13.01081984655354    0.03168069721241    0.00218671403403
C        15.30540373409166   -3.12370045424804    1.27281796190392
C        16.25849301484308   -2.16227863991488    1.24173571827024
C        15.77175611204740   -1.10169298868088    0.39007996037378
C        16.32393641499667    0.07680752437156   -0.00244238795862
C        15.66810786249497    1.20191031698020   -0.37195366667688
C        16.08183939341421    2.26989648947565   -1.24393444407305
C        15.10931513756338    3.20726315983410   -1.23748052268642
C        14.05586260774663    2.73581487367737   -0.37653121473301
N        14.36631908341773    1.48542796864130    0.09749891161420
C        12.88972953158821    3.43173178218124   -0.00283181907781
C        11.74143304675424    2.74705600499416    0.37993210332978
C        10.66210907203490    3.15880259210443    1.23990954914163
C         9.74446850994754    2.15165332873684    1.20931310232042
C        10.25743071927347    1.13350094541613    0.32792858020239
N        11.51817481029596    1.46564649526295   -0.08183264049594
C         9.62859083623846   -0.03474504055369   -0.13332768582946
C        10.34752140579826   -1.17725007124850   -0.46328294517583
C         9.92293718746367   -2.26241657540241   -1.31270544680602
C        10.88928877477558   -3.21424038753833   -1.24192811779358
C        11.91027191590847   -2.71802409134514   -0.34545356197566
N        11.60524642285647   -1.43563243724712    0.03612003459212
C        13.05009177272077   -3.36832886479863    0.12357994422492
C        14.21165814657732   -2.65668788408759    0.44837135250323
N        14.47393741110261   -1.41294046607774   -0.03771390416510
H        15.33147600017923   -4.01138249475125    1.87781370802571
H        17.16807999545513   -2.16909623417727    1.80728126382951
H        16.98799352668932    2.23861178656494   -1.81039815765195
H        15.05553881338129    4.10463506455733   -1.82528181002629
H        12.84416974928251    4.51859196384678   -0.00357338104573
H        10.62585088532737    4.02640803814670    1.87790798026072
H         8.87077589193952    2.09324589649076    1.82338567097720
H         8.55474338554075   -0.06631892243536   -0.25251058957838
H         9.06764229534902   -2.28335843502318   -1.96476284713077
H        10.91779885696072   -4.10332021584108   -1.83845115964136
H        13.05703542702412   -4.44481383987286    0.23731522960746
Co       42.82725771259098   -0.01365743043152   -0.00213490015921
C        40.53256287925773    2.85122271167112    1.83186370337753
C        39.57942182999501    1.91227527865775    1.62289668147156
C        40.06606712134796    1.02798664639680    0.58932554026726
C        39.51294002512805   -0.05722408293797   -0.01483661360765
C        40.16973168395707   -1.09416889499774   -0.58674832585822
C        39.75606684889350   -1.98189133087336   -1.64161766053064
C        40.72867116393979   -2.90418333043651   -1.80927017298174
C        41.78203992767132   -2.60069166396679   -0.87582707280060
N        41.47140917929649   -1.45977053846934   -0.17812916900242
C        42.94816983544717   -3.35380842745480   -0.63767999973270
C        44.09651409565635   -2.75200471461755   -0.13455140489877
C        45.17582376310364   -3.31612046486285    0.63407093875063
C        46.09349323435178   -2.32076010709580    0.79084099917422
C        45.58057458802489   -1.15681762824520    0.11364340229273
N        44.31980146800573   -1.40720263361686   -0.35066706087939
C        46.20939719507182    0.07672113499026   -0.12289502881758
C        45.49046355532992    1.26060989677603   -0.23520079388660
C        45.91501421224868    2.48448478672955   -0.86855798672319
C        44.94865583580589    3.40667571977536   -0.62240953075249
C        43.92766878249040    2.75279215930871    0.16641529815273
N        44.23271831777546    1.42186265903491    0.30350894803204
C        42.78780772359981    3.30479222419457    0.74790688060627
C        41.62621736752186    2.54526883125288    0.93507601549368
N        41.36382313847557    1.41316166235167    0.22682657250633
H        40.50647473000630    3.61125754131281    2.59103534835164
H        38.66987439099846    1.81413760158342    2.17999275834591
H        38.85001167092553   -1.84607576143861   -2.19262149466208
H        40.78242246458996   -3.67691545221274   -2.55337554661972
H        42.99381524562327   -4.42165256810488   -0.84012498599338
H        45.21210367542182   -4.28701534977856    1.10006937749284
H        46.96719091613758   -2.37731145300081    1.40508567930311
H        47.28324428386939    0.12986985195106   -0.23414192385841
H        46.77031117205523    2.62604745003949   -1.50541097549970
H        44.92014990293016    4.39097698263034   -1.04367203399874
H        42.78090537690692    4.34148590183655    1.05940844407014
C        19.29168863986400    0.01119621668615   -0.00252895603632
C        20.53133364471798    0.01617611317225   -0.00603735931623
C        21.88092309460269    0.01970466140592    0.00395377719658
C        23.11431996638575    0.04337625267707   -0.00568648463528
C        32.73194642700397    0.02019256937738   -0.00421447840321
C        33.96400757041336    0.01506123672897    0.00165755768219
C        35.31259928808203    0.01197314289179   -0.00084500153255
C        36.55042938033631    0.00353653044610   -0.00438658693944
Co       27.93599326059184    0.03560831260865   -0.00067711392070
C        25.68507571157194   -3.27356893970562   -0.86420790964588
C        24.71474408020121   -2.32189150956450   -0.96137520998339
C        25.20056579348611   -1.17512740441380   -0.24481589940051
C        24.51426643684073    0.04844820911382    0.00080373205735
C        25.26022604401124    1.24727223288499    0.24428746725506
C        24.80320322022541    2.40374019819754    0.94932584141906
C        25.77758765078772    3.34742662575311    0.84621954985302
C        26.84273547669273    2.77486694102922    0.08533621724082
N        26.54108285425658    1.45115757725081   -0.20583853631148
C        27.99564165092445    3.43213098928511   -0.34849078888437
C        29.14069798939054    2.71852828591449   -0.70198426312854
C        30.16194744018422    3.05563052418721   -1.64700227283121
C        31.09550478039412    2.05905515577776   -1.57240040701423
C        30.64613271125829    1.14199589167215   -0.57252747764041
N        29.41030635540266    1.49752766566175   -0.12066601868825
C        31.34037824022350    0.02375580075601   -0.01897423255073
C        30.63047986085338   -1.08573060068259    0.51749440021614