115
 energy: -208.058342597465 gnorm: 0.000252610847 xtb: 6.4.1 (bd6e46d)
Co       14.50134898296203   -0.00104762308371   -0.01152659995051
C        16.99380259499552   -3.41074397577895    0.10912590556922
C        17.94675785781928   -2.45144445809993    0.10210778029228
C        17.25816414866369   -1.19845392163963    0.04120882976534
C        17.92384254524410    0.02792594560291   -0.00930923616048
C        17.23766239885441    1.24318338500100   -0.04962094985050
C        17.90515474503807    2.50831504732735   -0.09109099471939
C        16.93643671676145    3.45161737666957   -0.07556722478262
C        15.68835687015148    2.75247177001491   -0.02800018572822
N        15.88375357299276    1.39615894906193   -0.02142368697374
C        14.46974395618063    3.39381907095839    0.02308160762735
C        13.26336443306525    2.72897017124988    0.05014574076183
C        11.99809576151875    3.40204611308681    0.09197159418180
C        11.05077870224096    2.43992144314161    0.06273841361764
C        11.74469763365645    1.18626272445649    0.00615450819246
N        13.09856541505432    1.37242929817413    0.00839380034471
C        11.09909677130170   -0.02967044683662   -0.06007140495391
C        11.76658602410746   -1.23496490759819   -0.09719221385344
C        11.09536535485497   -2.50088621805810   -0.15521071983254
C        12.05851160440654   -3.44737653456917   -0.13327162389876
C        13.31072220316752   -2.75244460375928   -0.06476075322747
N        13.12268767999525   -1.39836745135041   -0.05257335695652
C        14.52711741353103   -3.39615422327026   -0.00014086376462
C        15.73423652261761   -2.73345705629655    0.05010406116764
N        15.90699292302598   -1.37436243704999    0.01917917268488
H        17.11026244897241   -4.47634680056018    0.14692877770953
H        19.01368490569439   -2.55648613364301    0.13318886058254
H        18.97013209682406    2.63153980619435   -0.12347149823629
H        17.03506176199558    4.51953878832113   -0.09352261854966
H        14.46100862300686    4.47312431072445    0.03680405932431
H        11.87858718139552    4.46737896429859    0.13416946252086
H         9.98291848214508    2.54206822810573    0.07639494506376
H        10.02001296785286   -0.03865689406025   -0.07823854311064
H        10.03036272499256   -2.62122199142074   -0.20239189019598
H        11.95774455604479   -4.51513742795780   -0.15919236050741
H        14.53657328798832   -4.47551088853052    0.00704370180201
Co       41.35000263304556    0.03055861543354   -0.00865718007555
C        38.86403259982826    3.38344289983615    0.65209918204235
C        37.90895288873789    2.44192012410860    0.47988551625689
C        38.59528612201095    1.21195709831003    0.22664352723201
C        37.92708191928570    0.00904389000346   -0.00954520378090
C        38.61028314200850   -1.18764225568735   -0.23342081265523
C        37.93948025149063   -2.42993505353932   -0.46723306180825
C        38.90618326123708   -3.36406074839415   -0.61296237216234
C        40.15629401442542   -2.68175342567445   -0.46972129799677
N        39.96407909893369   -1.34417527036825   -0.24237916246403
C        41.37404163254588   -3.32203972044244   -0.54699788703949
C        42.58229371668079   -2.67097821898352   -0.42757670027754
C        43.84623210345977   -3.34135224023376   -0.52115124344887
C        44.79557317234685   -2.38984116696028   -0.38978891721636
C        44.10420672919096   -1.14586088891025   -0.21391630824799
N        42.74993239236503   -1.32825233970720   -0.23250826467029
C        44.75260933197160    0.06037297183797   -0.05847817259279
C        44.08818664536825    1.25348520506720    0.12746958070670
C        44.76289524195926    2.50663716475324    0.30297875585739
C        43.80193570046351    3.43721630104013    0.48865461026405
C        42.54757066098759    2.74603545936611    0.42170394732418
N        42.73227912506464    1.41064132617935    0.19456111075945
C        41.33191670285189    3.37472110319235    0.57980149723913
C        40.12260962753965    2.71909721811518    0.49908113373906
N        39.94706464564938    1.38402745232591    0.24484691653113
H        38.74972378268851    4.42936650331637    0.86053801694754
H        36.84199912746224    2.54479226792800    0.51709932778211
H        36.87395241128655   -2.54577778212133   -0.50791372059786
H        38.80502658426822   -4.41537671649902   -0.80006434099926
H        41.38041520243051   -4.38819158495665   -0.71564599561181
H        43.96346982090727   -4.39732290507788   -0.67000774787587
H        45.86326058591050   -2.49334499913177   -0.40629643844770
H        45.83167635019371    0.07027165095414   -0.07735697776124
H        45.82849879877431    2.62957529192360    0.28499059055494
H        43.90540528367918    4.49188826003357    0.65578268024244
H        41.32488661290746    4.43701444833604    0.77121149213660
C        19.32198913029308    0.03827089066521   -0.01216339840732
C        20.53954506322042    0.04212795452794   -0.01483879935315
C        21.88216832566061    0.04455513014522   -0.01346797229964
C        23.09984596187868    0.04295155146530   -0.01216547565565
C        32.75081776672727    0.00199401742235   -0.01779570534655
C        33.96839219999390   -0.00072461595253   -0.01905756315352
C        35.31119056783132   -0.00090117930699   -0.01841368540392
C        36.52866894550135    0.00229478179434   -0.01488755606023
Co       27.92527440300557    0.02369394133989   -0.00448508497318
C        25.44288093391307   -3.37878908844028    0.35698509432905
C        24.48549315691760   -2.42940883330836    0.25399395088585
C        25.16923972247736   -1.17950344407682    0.11994773676515
C        24.49751932004348    0.03798016610707   -0.00914832735567
C        25.17961463366773    1.25021515621896   -0.13202619799973
C        24.50656695722471    2.50649144703962   -0.26037165964895
C        25.47204410959120    3.44885908510801   -0.35160792496515
C        26.72276256833954    2.75728785425171   -0.27872028567515
N        26.53270596589332    1.40677567936175   -0.14420088256683
C        27.93975985552762    3.39953020115675   -0.33973861427561
C        29.15117724876160    2.74722176594271   -0.27442971470440
C        30.40780623900612    3.42851373460076   -0.34241134359933
C        31.36517854072125    2.47791540317210   -0.25140736164624
C        30.68136457286067    1.22688946288599   -0.12830303991944
N        29.32962350441980    1.39488751647204   -0.14241445108169
C        31.35292518649289    0.00794031208068   -0.01447450648417
C        30.67091318032683   -1.20447970017900    0.10612800894997
C        31.34399539309013   -2.46116885899104    0.23070318273814
C        30.37855902334757   -3.40211801075030    0.33575197751206
C        29.12783417902488   -2.70954135963138    0.27294914176375
N        29.31781420332263   -1.35977481302317    0.13122065036167
C        27.91088291333124   -3.35037152916268    0.34821238361539
C        26.69946173580517   -2.69804165933263    0.28335763315427
N        26.52094615847155   -1.34698715764424    0.13869379414555
H        25.33134511856045   -4.43943510112964    0.47130623823352
H        23.41864935990990   -2.53903614600188    0.26547741707413
H        23.44067803315088    2.62477126655229   -0.27550369697719
H        25.36961277454325    4.51121715622692   -0.45829457660221
H        27.94441579445261    4.47378552465247   -0.44601017592443
H        30.51938044473617    4.49019990010412   -0.44654012383548
H        32.43203447527446    2.58734749095823   -0.26480013864556
H        32.40987397033571   -2.58048383249163    0.23606960038020
H        30.48101630985842   -4.46415759698846    0.44554541007139
H        27.90627780274406   -4.42383045923766    0.46224382499979
