      -----------------------------------------------------------      
     |                   =====================                   |     
     |                           x T B                           |     
     |                   =====================                   |     
     |                         S. Grimme                         |     
     |          Mulliken Center for Theoretical Chemistry        |     
     |                    University of Bonn                     |     
      -----------------------------------------------------------      

   * xtb version 6.4.1 (bd6e46d) compiled by 'conda@4901f00b25ba' on 2021-06-10

   xtb is free software: you can redistribute it and/or modify it under
   the terms of the GNU Lesser General Public License as published by
   the Free Software Foundation, either version 3 of the License, or
   (at your option) any later version.
   
   xtb is distributed in the hope that it will be useful,
   but WITHOUT ANY WARRANTY; without even the implied warranty of
   MERCHANTABILITY or FITNESS FOR A PARTICULAR PURPOSE.  See the
   GNU Lesser General Public License for more details.
   
   Cite this work as:
   * C. Bannwarth, E. Caldeweyher, S. Ehlert, A. Hansen, P. Pracht,
     J. Seibert, S. Spicher, S. Grimme, WIREs Comput. Mol. Sci., 2020, 11,
     e01493. DOI: 10.1002/wcms.1493
   
   for GFN2-xTB:
   * C. Bannwarth, S. Ehlert and S. Grimme., J. Chem. Theory Comput., 2019,
     15, 1652-1671. DOI: 10.1021/acs.jctc.8b01176
   for GFN1-xTB:
   * S. Grimme, C. Bannwarth, P. Shushkov, J. Chem. Theory Comput., 2017,
     13, 1989-2009. DOI: 10.1021/acs.jctc.7b00118
   for GFN0-xTB:
   * P. Pracht, E. Caldeweyher, S. Ehlert, S. Grimme, ChemRxiv, 2019, preprint.
     DOI: 10.26434/chemrxiv.8326202.v1
   for GFN-FF:
   * S. Spicher and S. Grimme, Angew. Chem. Int. Ed., 2020, 59, 15665-15673.
     DOI: 10.1002/anie.202004239
   
   for DFT-D4:
   * E. Caldeweyher, C. Bannwarth and S. Grimme, J. Chem. Phys., 2017,
     147, 034112. DOI: 10.1063/1.4993215
   * E. Caldeweyher, S. Ehlert, A. Hansen, H. Neugebauer, S. Spicher,
     C. Bannwarth and S. Grimme, J. Chem. Phys., 2019, 150, 154122.
     DOI: 10.1063/1.5090222
   * E. Caldeweyher, J.-M. Mewes, S. Ehlert and S. Grimme, Phys. Chem. Chem. Phys.
     2020, 22, 8499-8512. DOI: 10.1039/D0CP00502A
   
   for sTDA-xTB:
   * S. Grimme and C. Bannwarth, J. Chem. Phys., 2016, 145, 054103.
     DOI: 10.1063/1.4959605
   
   in the mass-spec context:
   * V. Asgeirsson, C. Bauer and S. Grimme, Chem. Sci., 2017, 8, 4879.
     DOI: 10.1039/c7sc00601b
   * J. Koopman and S. Grimme, ACS Omega 2019, 4, 12, 15120-15133.
     DOI: 10.1021/acsomega.9b02011
   
   for metadynamics refer to:
   * S. Grimme, J. Chem. Theory Comput., 2019, 155, 2847-2862
     DOI: 10.1021/acs.jctc.9b00143
   
   for SPH calculations refer to:
   * S. Spicher and S. Grimme, J. Chem. Theory Comput., 2021, 17, 1701-1714
     DOI: 10.1021/acs.jctc.0c01306
   
   with help from (in alphabetical order)
   P. Atkinson, C. Bannwarth, F. Bohle, G. Brandenburg, E. Caldeweyher
   M. Checinski, S. Dohm, S. Ehlert, S. Ehrlich, I. Gerasimov, J. Koopman
   C. Lavigne, S. Lehtola, F. März, M. Müller, F. Musil, H. Neugebauer
   J. Pisarek, C. Plett, P. Pracht, J. Seibert, P. Shushkov, S. Spicher
   M. Stahn, M. Steiner, T. Strunk, J. Stückrath, T. Rose, and J. Unsleber
   
 * started run on 2021/11/21 at 19:13:53.801     

           -------------------------------------------------
          |                Calculation Setup                |
           -------------------------------------------------

          program call               : /home/jeff/miniconda3/bin/xtb /home/jeff/chem/final-year-proejct/free_base/_4_6_outenergy/input_structure.xyz --gfn 2 --parallel 1 --etemp 300 --chrg 0 --uhf 0 -I det_control.in
          coordinate file            : /home/jeff/chem/final-year-proejct/free_base/_4_6_outenergy/input_structure.xyz
          omp threads                :                     1
          number of atoms            :                   238
          number of electrons        :                   754
          charge                     :                     0
          spin                       :                   0.0
          first test random number   :      0.06729573501542

   ID    Z sym.   atoms
    1    6 C      1-8, 10-14, 16-20, 22, 23, 38-45, 47-51, 53-57, 59, 60,
                  75-102, 104-108, 110-114, 116, 117, 131-138, 140-144,
                  146-150, 152, 153, 167-174, 176-180, 182-186, 188, 189,
                  203-210, 212-216, 218-222, 224, 225
    2    7 N      9, 15, 21, 24, 46, 52, 58, 61, 103, 109, 115, 118, 139,
                  145, 151, 154, 175, 181, 187, 190, 211, 217, 223, 226
    3    1 H      25-37, 62-74, 119-130, 155-166, 191-202, 227-238

           -------------------------------------------------
          |                 G F N 2 - x T B                 |
           -------------------------------------------------

        Reference                      10.1021/acs.jctc.8b01176
      * Hamiltonian:
        H0-scaling (s, p, d)           1.850000    2.230000    2.230000
        zeta-weighting                 0.500000
      * Dispersion:
        s8                             2.700000
        a1                             0.520000
        a2                             5.000000
        s9                             5.000000
      * Repulsion:
        kExp                           1.500000    1.000000
        rExp                           1.000000
      * Coulomb:
        alpha                          2.000000
        third order                    shell-resolved
        anisotropic                    true
        a3                             3.000000
        a5                             4.000000
        cn-shift                       1.200000
        cn-exp                         4.000000
        max-rad                        5.000000


          ...................................................
          :                      SETUP                      :
          :.................................................:
          :  # basis functions                 730          :
          :  # atomic orbitals                 730          :
          :  # shells                          402          :
          :  # electrons                       754          :
          :  max. iterations                   250          :
          :  Hamiltonian                  GFN2-xTB          :
          :  restarted?                      false          :
          :  GBSA solvation                  false          :
          :  PC potential                    false          :
          :  electronic temp.          300.0000000     K    :
          :  accuracy                    1.0000000          :
          :  -> integral cutoff          0.2500000E+02      :
          :  -> integral neglect         0.1000000E-07      :
          :  -> SCF convergence          0.1000000E-05 Eh   :
          :  -> wf. convergence          0.1000000E-03 e    :
          :  Broyden damping             0.4000000          :
          ...................................................

 iter      E             dE          RMSdq      gap      omega  full diag
   1   -414.1835833 -0.414184E+03  0.563E+00    0.50       0.0  T
   2   -414.7846702 -0.601087E+00  0.363E+00    0.76       1.0  T
   3   -414.6202911  0.164379E+00  0.155E+00    0.58       1.0  T
   4   -414.7819364 -0.161645E+00  0.625E-01    0.75       1.0  T
   5   -414.8992704 -0.117334E+00  0.208E-01    0.73       1.0  T
   6   -414.9125386 -0.132681E-01  0.831E-02    0.74       1.0  T
   7   -414.9132838 -0.745243E-03  0.544E-02    0.74       1.0  T
   8   -414.9139819 -0.698101E-03  0.215E-02    0.74       1.0  T
   9   -414.9140516 -0.697328E-04  0.113E-02    0.74       1.0  T
  10   -414.9140600 -0.835747E-05  0.616E-03    0.74       1.1  T
  11   -414.9140711 -0.111035E-04  0.157E-03    0.74       4.1  T
  12   -414.9140718 -0.668255E-06  0.798E-04    0.74       8.1  T
  13   -414.9140719 -0.188068E-06  0.373E-04    0.74      17.4  T

   *** convergence criteria satisfied after 13 iterations ***

         #    Occupation            Energy/Eh            Energy/eV
      -------------------------------------------------------------
         1        2.0000           -0.6853989             -18.6507
       ...           ...                  ...                  ...
       371        2.0000           -0.3690616             -10.0427
       372        2.0000           -0.3667826              -9.9807
       373        2.0000           -0.3634706              -9.8905
       374        2.0000           -0.3587043              -9.7608
       375        2.0000           -0.3532904              -9.6135
       376        2.0000           -0.3481178              -9.4728
       377        2.0000           -0.3443503              -9.3702 (HOMO)
       378        0.0000           -0.3172470              -8.6327 (LUMO)
       379                         -0.3127605              -8.5106
       380                         -0.3072065              -8.3595
       381                         -0.3016038              -8.2071
       382                         -0.2991043              -8.1390
       ...                                ...                  ...
       730                          1.6336526              44.4540
      -------------------------------------------------------------
                  HL-Gap            0.0271033 Eh            0.7375 eV
             Fermi-level           -0.3307939 Eh           -9.0014 eV

 SCC (total)                   0 d,  0 h,  0 min,  2.570 sec
 SCC setup                      ...        0 min,  0.010 sec (  0.371%)
 Dispersion                     ...        0 min,  0.022 sec (  0.875%)
 classical contributions        ...        0 min,  0.002 sec (  0.077%)
 integral evaluation            ...        0 min,  0.152 sec (  5.911%)
 iterations                     ...        0 min,  1.963 sec ( 76.387%)
 molecular gradient             ...        0 min,  0.401 sec ( 15.618%)
 printout                       ...        0 min,  0.020 sec (  0.761%)

         :::::::::::::::::::::::::::::::::::::::::::::::::::::
         ::                     SUMMARY                     ::
         :::::::::::::::::::::::::::::::::::::::::::::::::::::
         :: total energy            -407.117193597748 Eh    ::
         :: gradient norm              0.000803395521 Eh/a0 ::
         :: HOMO-LUMO gap              0.737519116055 eV    ::
         ::.................................................::
         :: SCC energy              -414.914071947669 Eh    ::
         :: -> isotropic ES            0.204111233875 Eh    ::
         :: -> anisotropic ES         -0.020858322881 Eh    ::
         :: -> anisotropic XC          0.284232493709 Eh    ::
         :: -> dispersion             -0.338746733648 Eh    ::
         :: repulsion energy           7.802923199866 Eh    ::
         :: add. restraining           0.000000000000 Eh    ::
         :: total charge               0.000000000000 e     ::
         :::::::::::::::::::::::::::::::::::::::::::::::::::::

           -------------------------------------------------
          |                Property Printout                |
           -------------------------------------------------

    * Orbital Energies and Occupations

         #    Occupation            Energy/Eh            Energy/eV
      -------------------------------------------------------------
         1        2.0000           -0.6853989             -18.6507
       ...           ...                  ...                  ...
       365        2.0000           -0.3715440             -10.1102
       366        2.0000           -0.3705489             -10.0831
       367        2.0000           -0.3704741             -10.0811
       368        2.0000           -0.3702848             -10.0760
       369        2.0000           -0.3702682             -10.0755
       370        2.0000           -0.3691005             -10.0437
       371        2.0000           -0.3690616             -10.0427
       372        2.0000           -0.3667826              -9.9807
       373        2.0000           -0.3634706              -9.8905
       374        2.0000           -0.3587043              -9.7608
       375        2.0000           -0.3532904              -9.6135
       376        2.0000           -0.3481178              -9.4728
       377        2.0000           -0.3443503              -9.3702 (HOMO)
       378        0.0000           -0.3172470              -8.6327 (LUMO)
       379                         -0.3127605              -8.5106
       380                         -0.3072065              -8.3595
       381                         -0.3016038              -8.2071
       382                         -0.2991043              -8.1390
       383                         -0.2990857              -8.1385
       384                         -0.2989081              -8.1337
       385                         -0.2987180              -8.1285
       386                         -0.2980880              -8.1114
       387                         -0.2977559              -8.1023
       388                         -0.2953455              -8.0368
       ...                                ...                  ...
       730                          1.6336526              44.4540
      -------------------------------------------------------------
                  HL-Gap            0.0271033 Eh            0.7375 eV
             Fermi-level           -0.3307939 Eh           -9.0014 eV

     #   Z          covCN         q      C6AA      α(0)
     1   6 C        3.016    -0.055    29.338     8.885
     2   6 C        3.009    -0.053    29.300     8.879
     3   6 C        3.196     0.087    25.565     8.243
     4   6 C        2.952     0.012    27.752     8.640
     5   6 C        3.097     0.064    26.450     8.429
     6   6 C        3.026    -0.050    29.208     8.865
     7   6 C        3.034    -0.052    29.251     8.871
     8   6 C        3.073     0.064    26.486     8.438
     9   7 N        2.785    -0.081    22.814     7.094
    10   6 C        2.899    -0.055    29.363     8.885
    11   6 C        3.171     0.087    25.717     8.284
    12   6 C        3.012    -0.054    29.315     8.881
    13   6 C        3.010    -0.054    29.317     8.882
    14   6 C        3.174     0.086    25.706     8.281
    15   7 N        1.870    -0.321    29.171     8.006
    16   6 C        2.899    -0.057    29.407     8.891
    17   6 C        3.074     0.065    26.469     8.435
    18   6 C        3.026    -0.051    29.239     8.870
    19   6 C        3.031    -0.051    29.231     8.868
    20   6 C        3.069     0.066    26.462     8.435
    21   7 N        2.787    -0.081    22.811     7.093
    22   6 C        2.899    -0.055    29.363     8.885
    23   6 C        3.175     0.086    25.722     8.283
    24   7 N        1.870    -0.325    29.275     8.020
    25   1 H        0.926     0.019     2.755     2.595
    26   1 H        0.926     0.021     2.723     2.580
    27   1 H        0.926     0.043     2.406     2.425
    28   1 H        0.926     0.041     2.429     2.437
    29   1 H        0.860     0.214     1.037     1.595
    30   1 H        0.925     0.047     2.357     2.401
    31   1 H        0.926     0.020     2.740     2.589
    32   1 H        0.926     0.020     2.740     2.588
    33   1 H        0.926     0.046     2.367     2.406
    34   1 H        0.926     0.042     2.422     2.434
    35   1 H        0.926     0.042     2.423     2.434
    36   1 H        0.860     0.214     1.036     1.594
    37   1 H        0.925     0.047     2.357     2.401
    38   6 C        3.016    -0.055    29.338     8.885
    39   6 C        3.009    -0.053    29.301     8.879
    40   6 C        3.196     0.087    25.564     8.243
    41   6 C        2.952     0.012    27.751     8.640
    42   6 C        3.097     0.064    26.449     8.429
    43   6 C        3.026    -0.050    29.207     8.865
    44   6 C        3.034    -0.052    29.251     8.871
    45   6 C        3.073     0.064    26.486     8.438
    46   7 N        2.785    -0.081    22.814     7.094
    47   6 C        2.899    -0.055    29.363     8.885
    48   6 C        3.171     0.087    25.716     8.284
    49   6 C        3.012    -0.054    29.315     8.881
    50   6 C        3.010    -0.054    29.317     8.882
    51   6 C        3.174     0.087    25.706     8.281
    52   7 N        1.870    -0.321    29.171     8.006
    53   6 C        2.899    -0.057    29.407     8.891
    54   6 C        3.074     0.065    26.469     8.435
    55   6 C        3.026    -0.051    29.239     8.870
    56   6 C        3.031    -0.051    29.231     8.868
    57   6 C        3.069     0.066    26.462     8.435
    58   7 N        2.787    -0.081    22.810     7.093
    59   6 C        2.899    -0.055    29.363     8.885
    60   6 C        3.175     0.085    25.721     8.282
    61   7 N        1.870    -0.325    29.274     8.020
    62   1 H        0.926     0.019     2.755     2.595
    63   1 H        0.926     0.021     2.723     2.580
    64   1 H        0.926     0.043     2.406     2.426
    65   1 H        0.926     0.041     2.429     2.437
    66   1 H        0.860     0.214     1.037     1.595
    67   1 H        0.925     0.047     2.357     2.401
    68   1 H        0.926     0.020     2.740     2.589
    69   1 H        0.926     0.020     2.740     2.588
    70   1 H        0.926     0.046     2.367     2.406
    71   1 H        0.926     0.042     2.422     2.434
    72   1 H        0.926     0.042     2.423     2.434
    73   1 H        0.860     0.214     1.036     1.594
    74   1 H        0.925     0.047     2.357     2.401
    75   6 C        1.996    -0.022    31.619     9.081
    76   6 C        1.963    -0.011    31.372     9.045
    77   6 C        1.964    -0.010    31.348     9.042
    78   6 C        1.994    -0.023    31.643     9.084
    79   6 C        1.994    -0.022    31.623     9.082
    80   6 C        1.964    -0.011    31.355     9.043
    81   6 C        1.964    -0.011    31.349     9.042
    82   6 C        1.994    -0.022    31.629     9.082
    83   6 C        1.994    -0.022    31.626     9.082
    84   6 C        1.964    -0.011    31.350     9.042
    85   6 C        1.964    -0.011    31.350     9.042
    86   6 C        1.994    -0.022    31.625     9.082
    87   6 C        1.994    -0.022    31.629     9.082
    88   6 C        1.964    -0.011    31.349     9.042
    89   6 C        1.964    -0.011    31.355     9.043
    90   6 C        1.995    -0.022    31.623     9.082
    91   6 C        1.994    -0.023    31.643     9.084
    92   6 C        1.964    -0.010    31.348     9.042
    93   6 C        1.963    -0.011    31.372     9.045
    94   6 C        1.996    -0.022    31.619     9.081
    95   6 C        3.017    -0.055    29.332     8.884
    96   6 C        3.009    -0.053    29.297     8.879
    97   6 C        3.196     0.087    25.566     8.243
    98   6 C        2.952     0.012    27.739     8.638
    99   6 C        3.100     0.064    26.456     8.429
   100   6 C        3.025    -0.050    29.215     8.866
   101   6 C        3.036    -0.052    29.249     8.871
   102   6 C        3.073     0.064    26.493     8.439
   103   7 N        2.786    -0.081    22.815     7.094
   104   6 C        2.899    -0.053    29.308     8.876
   105   6 C        3.174     0.085    25.736     8.286
   106   6 C        3.017    -0.055    29.331     8.884
   107   6 C        3.009    -0.053    29.297     8.879
   108   6 C        3.196     0.087    25.564     8.243
   109   7 N        1.870    -0.324    29.256     8.018
   110   6 C        2.952     0.012    27.749     8.640
   111   6 C        3.100     0.064    26.453     8.428
   112   6 C        3.025    -0.050    29.219     8.867
   113   6 C        3.036    -0.052    29.248     8.871
   114   6 C        3.073     0.064    26.495     8.440
   115   7 N        2.786    -0.081    22.815     7.094
   116   6 C        2.899    -0.053    29.306     8.876
   117   6 C        3.174     0.085    25.734     8.285
   118   7 N        1.870    -0.324    29.253     8.017
   119   1 H        0.926     0.019     2.752     2.594
   120   1 H        0.926     0.021     2.721     2.580
   121   1 H        0.926     0.043     2.408     2.427
   122   1 H        0.926     0.041     2.431     2.438
   123   1 H        0.860     0.214     1.036     1.594
   124   1 H        0.925     0.048     2.348     2.396
   125   1 H        0.926     0.019     2.752     2.594
   126   1 H        0.926     0.021     2.724     2.581
   127   1 H        0.926     0.043     2.409     2.427
   128   1 H        0.926     0.041     2.430     2.438
   129   1 H        0.860     0.214     1.036     1.594
   130   1 H        0.925     0.048     2.347     2.396
   131   6 C        3.017    -0.055    29.331     8.884
   132   6 C        3.009    -0.053    29.297     8.879
   133   6 C        3.196     0.087    25.566     8.243
   134   6 C        2.952     0.012    27.743     8.639
   135   6 C        3.100     0.064    26.454     8.429
   136   6 C        3.025    -0.050    29.218     8.866
   137   6 C        3.037    -0.052    29.248     8.871
   138   6 C        3.073     0.064    26.493     8.439
   139   7 N        2.786    -0.081    22.815     7.094
   140   6 C        2.899    -0.053    29.303     8.876
   141   6 C        3.174     0.085    25.735     8.286
   142   6 C        3.017    -0.055    29.331     8.884
   143   6 C        3.009    -0.053    29.299     8.879
   144   6 C        3.197     0.087    25.563     8.242
   145   7 N        1.870    -0.324    29.250     8.017
   146   6 C        2.952     0.012    27.746     8.639
   147   6 C        3.100     0.064    26.454     8.429
   148   6 C        3.025    -0.050    29.217     8.866
   149   6 C        3.037    -0.052    29.248     8.871
   150   6 C        3.073     0.064    26.493     8.439
   151   7 N        2.786    -0.081    22.817     7.094
   152   6 C        2.899    -0.053    29.304     8.876
   153   6 C        3.174     0.085    25.737     8.286
   154   7 N        1.870    -0.324    29.249     8.017
   155   1 H        0.926     0.019     2.751     2.594
   156   1 H        0.926     0.021     2.723     2.580
   157   1 H        0.926     0.043     2.408     2.427
   158   1 H        0.926     0.041     2.430     2.438
   159   1 H        0.860     0.214     1.035     1.594
   160   1 H        0.925     0.048     2.346     2.395
   161   1 H        0.926     0.019     2.751     2.594
   162   1 H        0.926     0.021     2.722     2.580
   163   1 H        0.926     0.043     2.409     2.427
   164   1 H        0.926     0.041     2.430     2.438
   165   1 H        0.860     0.214     1.035     1.594
   166   1 H        0.925     0.048     2.346     2.395
   167   6 C        3.017    -0.055    29.331     8.884
   168   6 C        3.009    -0.053    29.299     8.879
   169   6 C        3.197     0.087    25.562     8.242
   170   6 C        2.952     0.012    27.746     8.639
   171   6 C        3.100     0.064    26.454     8.429
   172   6 C        3.025    -0.050    29.217     8.866
   173   6 C        3.036    -0.052    29.248     8.871
   174   6 C        3.073     0.064    26.494     8.439
   175   7 N        2.786    -0.081    22.816     7.094
   176   6 C        2.899    -0.053    29.304     8.876
   177   6 C        3.174     0.085    25.735     8.286
   178   6 C        3.017    -0.055    29.331     8.884
   179   6 C        3.009    -0.053    29.298     8.879
   180   6 C        3.197     0.087    25.563     8.242
   181   7 N        1.870    -0.324    29.250     8.017
   182   6 C        2.952     0.012    27.743     8.639
   183   6 C        3.100     0.064    26.454     8.429
   184   6 C        3.025    -0.050    29.217     8.866
   185   6 C        3.037    -0.052    29.249     8.871
   186   6 C        3.073     0.064    26.493     8.439
   187   7 N        2.786    -0.081    22.815     7.094
   188   6 C        2.899    -0.053    29.304     8.876
   189   6 C        3.174     0.085    25.735     8.285
   190   7 N        1.870    -0.324    29.250     8.017
   191   1 H        0.926     0.019     2.751     2.594
   192   1 H        0.926     0.021     2.722     2.580
   193   1 H        0.926     0.043     2.409     2.427
   194   1 H        0.926     0.041     2.430     2.438
   195   1 H        0.860     0.214     1.036     1.594
   196   1 H        0.925     0.048     2.346     2.395
   197   1 H        0.926     0.019     2.751     2.594
   198   1 H        0.926     0.021     2.722     2.580
   199   1 H        0.926     0.043     2.409     2.427
   200   1 H        0.926     0.041     2.430     2.438
   201   1 H        0.860     0.214     1.035     1.594
   202   1 H        0.925     0.048     2.346     2.395
   203   6 C        3.017    -0.055    29.331     8.884
   204   6 C        3.009    -0.053    29.299     8.879
   205   6 C        3.197     0.087    25.562     8.242
   206   6 C        2.952     0.012    27.749     8.640
   207   6 C        3.100     0.064    26.452     8.428
   208   6 C        3.026    -0.050    29.217     8.866
   209   6 C        3.036    -0.052    29.248     8.871
   210   6 C        3.073     0.064    26.496     8.440
   211   7 N        2.786    -0.081    22.814     7.094
   212   6 C        2.899    -0.053    29.306     8.876
   213   6 C        3.174     0.085    25.734     8.285
   214   6 C        3.017    -0.055    29.332     8.884
   215   6 C        3.009    -0.053    29.298     8.879
   216   6 C        3.197     0.087    25.564     8.242
   217   7 N        1.870    -0.324    29.253     8.017
   218   6 C        2.952     0.012    27.739     8.638
   219   6 C        3.099     0.064    26.455     8.429
   220   6 C        3.025    -0.050    29.214     8.866
   221   6 C        3.036    -0.052    29.250     8.871
   222   6 C        3.073     0.064    26.493     8.439
   223   7 N        2.786    -0.081    22.813     7.094
   224   6 C        2.899    -0.053    29.307     8.876
   225   6 C        3.174     0.085    25.734     8.285
   226   7 N        1.870    -0.324    29.256     8.018
   227   1 H        0.926     0.019     2.752     2.594
   228   1 H        0.926     0.021     2.723     2.580
   229   1 H        0.926     0.043     2.409     2.427
   230   1 H        0.926     0.041     2.431     2.438
   231   1 H        0.860     0.214     1.036     1.595
   232   1 H        0.925     0.048     2.347     2.396
   233   1 H        0.926     0.019     2.752     2.594
   234   1 H        0.926     0.021     2.721     2.580
   235   1 H        0.926     0.043     2.408     2.427
   236   1 H        0.926     0.041     2.431     2.438
   237   1 H        0.860     0.214     1.036     1.595
   238   1 H        0.925     0.048     2.348     2.396

 Mol. C6AA /au·bohr⁶  :     956166.307163
 Mol. C8AA /au·bohr⁸  :   24656156.876205
 Mol. α(0) /au        :       1573.302619


Wiberg/Mayer (AO) data.
largest (>0.10) Wiberg bond orders for each atom

 ---------------------------------------------------------------------------
     #   Z sym  total        # sym  WBO       # sym  WBO       # sym  WBO
 ---------------------------------------------------------------------------
     1   6 C    3.960 --     2 C    1.716    23 C    1.115    25 H    0.973
     2   6 C    3.961 --     1 C    1.716     3 C    1.122    26 H    0.972
     3   6 C    3.917 --    24 N    1.362     4 C    1.243     2 C    1.122
     4   6 C    3.939 --     5 C    1.248     3 C    1.243    75 C    1.192
     5   6 C    3.902 --     4 C    1.248     6 C    1.237     9 N    1.226
     6   6 C    3.955 --     7 C    1.592     5 C    1.237    27 H    0.972
     7   6 C    3.948 --     6 C    1.592     8 C    1.224    28 H    0.973
     8   6 C    3.918 --    10 C    1.344     7 C    1.224     9 N    1.202
     9   7 N    3.590 --     5 C    1.226     8 C    1.202    29 H    0.900
    10   6 C    3.920 --    11 C    1.357     8 C    1.344    30 H    0.964
    11   6 C    3.939 --    10 C    1.357    15 N    1.324    12 C    1.107
    12   6 C    3.963 --    13 C    1.731    11 C    1.107    31 H    0.973
    13   6 C    3.962 --    12 C    1.731    14 C    1.109    32 H    0.973
    14   6 C    3.938 --    16 C    1.354    15 N    1.325    13 C    1.109
    15   7 N    3.001 --    14 C    1.325    11 C    1.324
    16   6 C    3.922 --    14 C    1.354    17 C    1.346    33 H    0.965
    17   6 C    3.921 --    16 C    1.346    18 C    1.216    21 N    1.210
    18   6 C    3.949 --    19 C    1.608    17 C    1.216    34 H    0.973
    19   6 C    3.953 --    18 C    1.608    20 C    1.215    35 H    0.973
    20   6 C    3.916 --    22 C    1.342    19 C    1.215    21 N    1.211
    21   7 N    3.586 --    20 C    1.211    17 C    1.210    36 H    0.900
    22   6 C    3.937 --    23 C    1.367    20 C    1.342    37 H    0.964
    23   6 C    3.924 --    22 C    1.367    24 N    1.298     1 C    1.115
    24   7 N    3.009 --     3 C    1.362    23 C    1.298
    25   1 H    0.999 --     1 C    0.973
    26   1 H    0.999 --     2 C    0.972
    27   1 H    0.998 --     6 C    0.972
    28   1 H    0.998 --     7 C    0.973
    29   1 H    0.954 --     9 N    0.900
    30   1 H    0.997 --    10 C    0.964
    31   1 H    0.999 --    12 C    0.973
    32   1 H    0.999 --    13 C    0.973
    33   1 H    0.997 --    16 C    0.965
    34   1 H    0.998 --    18 C    0.973
    35   1 H    0.998 --    19 C    0.973
    36   1 H    0.954 --    21 N    0.900
    37   1 H    0.997 --    22 C    0.964
    38   6 C    3.960 --    39 C    1.716    60 C    1.115    62 H    0.973
    39   6 C    3.961 --    38 C    1.716    40 C    1.121    63 H    0.972
    40   6 C    3.916 --    61 N    1.363    41 C    1.243    39 C    1.121
    41   6 C    3.939 --    42 C    1.248    40 C    1.243    94 C    1.192
    42   6 C    3.902 --    41 C    1.248    43 C    1.237    46 N    1.226
    43   6 C    3.955 --    44 C    1.592    42 C    1.237    64 H    0.972
    44   6 C    3.948 --    43 C    1.592    45 C    1.224    65 H    0.973
    45   6 C    3.918 --    47 C    1.344    44 C    1.224    46 N    1.202
    46   7 N    3.590 --    42 C    1.226    45 C    1.202    66 H    0.900
    47   6 C    3.920 --    48 C    1.357    45 C    1.344    67 H    0.964
    48   6 C    3.939 --    47 C    1.357    52 N    1.324    49 C    1.107
    49   6 C    3.963 --    50 C    1.731    48 C    1.107    68 H    0.973
    50   6 C    3.962 --    49 C    1.731    51 C    1.109    69 H    0.973
    51   6 C    3.938 --    53 C    1.354    52 N    1.325    50 C    1.109
    52   7 N    3.000 --    51 C    1.325    48 C    1.324
    53   6 C    3.922 --    51 C    1.354    54 C    1.346    70 H    0.965
    54   6 C    3.921 --    53 C    1.346    55 C    1.216    58 N    1.210
    55   6 C    3.949 --    56 C    1.608    54 C    1.216    71 H    0.973
    56   6 C    3.953 --    55 C    1.608    57 C    1.215    72 H    0.973
    57   6 C    3.916 --    59 C    1.342    56 C    1.215    58 N    1.211
    58   7 N    3.586 --    57 C    1.211    54 C    1.210    73 H    0.900
    59   6 C    3.937 --    60 C    1.367    57 C    1.342    74 H    0.964
    60   6 C    3.924 --    59 C    1.367    61 N    1.298    38 C    1.115
    61   7 N    3.009 --    40 C    1.363    60 C    1.298
    62   1 H    0.999 --    38 C    0.973
    63   1 H    0.999 --    39 C    0.972
    64   1 H    0.998 --    43 C    0.972
    65   1 H    0.998 --    44 C    0.973
    66   1 H    0.954 --    46 N    0.900
    67   1 H    0.997 --    47 C    0.964
    68   1 H    0.999 --    49 C    0.973
    69   1 H    0.999 --    50 C    0.973
    70   1 H    0.997 --    53 C    0.965
    71   1 H    0.998 --    55 C    0.973
    72   1 H    0.998 --    56 C    0.973
    73   1 H    0.954 --    58 N    0.900
    74   1 H    0.997 --    59 C    0.964
    75   6 C    3.916 --    76 C    2.461     4 C    1.192    78 C    0.202
    76   6 C    3.925 --    75 C    2.461    77 C    1.311
    77   6 C    3.921 --    78 C    2.459    76 C    1.311
    78   6 C    3.918 --    77 C    2.459    98 C    1.196    75 C    0.202
    79   6 C    3.916 --    80 C    2.454   110 C    1.198    82 C    0.201
    80   6 C    3.921 --    79 C    2.454    81 C    1.315
    81   6 C    3.920 --    82 C    2.454    80 C    1.315
    82   6 C    3.916 --    81 C    2.454   134 C    1.198    79 C    0.201
    83   6 C    3.916 --    84 C    2.454   146 C    1.199    86 C    0.201
    84   6 C    3.920 --    83 C    2.454    85 C    1.315
    85   6 C    3.920 --    86 C    2.454    84 C    1.315
    86   6 C    3.916 --    85 C    2.454   170 C    1.198    83 C    0.201
    87   6 C    3.916 --    88 C    2.454   182 C    1.198    90 C    0.201
    88   6 C    3.920 --    87 C    2.454    89 C    1.315
    89   6 C    3.921 --    90 C    2.454    88 C    1.315
    90   6 C    3.916 --    89 C    2.454   206 C    1.198    87 C    0.201
    91   6 C    3.918 --    92 C    2.458   218 C    1.196    94 C    0.202
    92   6 C    3.921 --    91 C    2.458    93 C    1.311
    93   6 C    3.925 --    94 C    2.460    92 C    1.311
    94   6 C    3.916 --    93 C    2.460    41 C    1.192    91 C    0.202
    95   6 C    3.961 --    96 C    1.715   117 C    1.115   119 H    0.973
    96   6 C    3.960 --    95 C    1.715    97 C    1.123   120 H    0.972
    97   6 C    3.917 --   118 N    1.363    98 C    1.241    96 C    1.123
    98   6 C    3.925 --    99 C    1.243    97 C    1.241    78 C    1.196
    99   6 C    3.903 --    98 C    1.243   100 C    1.242   103 N    1.226
   100   6 C    3.952 --   101 C    1.587    99 C    1.242   121 H    0.972
   101   6 C    3.949 --   100 C    1.587   102 C    1.228   122 H    0.973
   102   6 C    3.914 --   104 C    1.335   101 C    1.228   103 N    1.203
   103   7 N    3.586 --    99 C    1.226   102 C    1.203   123 H    0.898
   104   6 C    3.923 --   105 C    1.373   102 C    1.335   124 H    0.963
   105   6 C    3.926 --   104 C    1.373   109 N    1.294   106 C    1.115
   106   6 C    3.961 --   107 C    1.716   105 C    1.115   125 H    0.973
   107   6 C    3.960 --   106 C    1.716   108 C    1.123   126 H    0.972
   108   6 C    3.917 --   109 N    1.364   110 C    1.240   107 C    1.123
   109   7 N    2.999 --   108 C    1.364   105 C    1.294
   110   6 C    3.925 --   111 C    1.242   108 C    1.240    79 C    1.198
   111   6 C    3.903 --   110 C    1.242   112 C    1.242   115 N    1.227
   112   6 C    3.952 --   113 C    1.587   111 C    1.242   127 H    0.972
   113   6 C    3.948 --   112 C    1.587   114 C    1.228   128 H    0.973
   114   6 C    3.914 --   116 C    1.336   113 C    1.228   115 N    1.203
   115   7 N    3.585 --   111 C    1.227   114 C    1.203   129 H    0.898
   116   6 C    3.922 --   117 C    1.371   114 C    1.336   130 H    0.963
   117   6 C    3.926 --   116 C    1.371   118 N    1.295    95 C    1.115
   118   7 N    2.999 --    97 C    1.363   117 C    1.295
   119   1 H    0.999 --    95 C    0.973
   120   1 H    0.999 --    96 C    0.972
   121   1 H    0.998 --   100 C    0.972
   122   1 H    0.998 --   101 C    0.973
   123   1 H    0.954 --   103 N    0.898
   124   1 H    0.997 --   104 C    0.963
   125   1 H    0.999 --   106 C    0.973
   126   1 H    0.999 --   107 C    0.972
   127   1 H    0.998 --   112 C    0.972
   128   1 H    0.998 --   113 C    0.973
   129   1 H    0.954 --   115 N    0.898
   130   1 H    0.997 --   116 C    0.963
   131   6 C    3.960 --   132 C    1.715   153 C    1.115   155 H    0.973
   132   6 C    3.960 --   131 C    1.715   133 C    1.124   156 H    0.972
   133   6 C    3.917 --   154 N    1.364   134 C    1.240   132 C    1.124
   134   6 C    3.924 --   135 C    1.242   133 C    1.240    82 C    1.198
   135   6 C    3.903 --   134 C    1.242   136 C    1.242   139 N    1.227
   136   6 C    3.952 --   137 C    1.586   135 C    1.242   157 H    0.972
   137   6 C    3.948 --   136 C    1.586   138 C    1.229   158 H    0.973
   138   6 C    3.914 --   140 C    1.335   137 C    1.229   139 N    1.203
   139   7 N    3.585 --   135 C    1.227   138 C    1.203   159 H    0.898
   140   6 C    3.922 --   141 C    1.373   138 C    1.335   160 H    0.963
   141   6 C    3.926 --   140 C    1.373   145 N    1.294   142 C    1.115
   142   6 C    3.961 --   143 C    1.715   141 C    1.115   161 H    0.973
   143   6 C    3.960 --   142 C    1.715   144 C    1.123   162 H    0.972
   144   6 C    3.917 --   145 N    1.364   146 C    1.239   143 C    1.123
   145   7 N    2.999 --   144 C    1.364   141 C    1.294
   146   6 C    3.924 --   147 C    1.242   144 C    1.239    83 C    1.199
   147   6 C    3.903 --   146 C    1.242   148 C    1.242   151 N    1.227
   148   6 C    3.952 --   149 C    1.587   147 C    1.242   163 H    0.972
   149   6 C    3.948 --   148 C    1.587   150 C    1.228   164 H    0.973
   150   6 C    3.914 --   152 C    1.335   149 C    1.228   151 N    1.203
   151   7 N    3.585 --   147 C    1.227   150 C    1.203   165 H    0.898
   152   6 C    3.922 --   153 C    1.372   150 C    1.335   166 H    0.963
   153   6 C    3.926 --   152 C    1.372   154 N    1.294   131 C    1.115
   154   7 N    2.999 --   133 C    1.364   153 C    1.294
   155   1 H    0.999 --   131 C    0.973
   156   1 H    0.999 --   132 C    0.972
   157   1 H    0.998 --   136 C    0.972
   158   1 H    0.998 --   137 C    0.973
   159   1 H    0.954 --   139 N    0.898
   160   1 H    0.997 --   140 C    0.963
   161   1 H    0.999 --   142 C    0.973
   162   1 H    0.999 --   143 C    0.972
   163   1 H    0.998 --   148 C    0.972
   164   1 H    0.998 --   149 C    0.973
   165   1 H    0.954 --   151 N    0.898
   166   1 H    0.997 --   152 C    0.963
   167   6 C    3.961 --   168 C    1.715   189 C    1.115   191 H    0.973
   168   6 C    3.960 --   167 C    1.715   169 C    1.123   192 H    0.972
   169   6 C    3.917 --   190 N    1.364   170 C    1.239   168 C    1.123
   170   6 C    3.924 --   171 C    1.243   169 C    1.239    86 C    1.198
   171   6 C    3.903 --   170 C    1.243   172 C    1.242   175 N    1.227
   172   6 C    3.952 --   173 C    1.587   171 C    1.242   193 H    0.972
   173   6 C    3.948 --   172 C    1.587   174 C    1.229   194 H    0.973
   174   6 C    3.914 --   176 C    1.335   173 C    1.229   175 N    1.203
   175   7 N    3.585 --   171 C    1.227   174 C    1.203   195 H    0.898
   176   6 C    3.922 --   177 C    1.372   174 C    1.335   196 H    0.963
   177   6 C    3.926 --   176 C    1.372   181 N    1.294   178 C    1.115
   178   6 C    3.960 --   179 C    1.715   177 C    1.115   197 H    0.973
   179   6 C    3.960 --   178 C    1.715   180 C    1.124   198 H    0.972
   180   6 C    3.917 --   181 N    1.364   182 C    1.240   179 C    1.124
   181   7 N    2.999 --   180 C    1.364   177 C    1.294
   182   6 C    3.924 --   183 C    1.242   180 C    1.240    87 C    1.198
   183   6 C    3.903 --   182 C    1.242   184 C    1.242   187 N    1.227
   184   6 C    3.952 --   185 C    1.586   183 C    1.242   199 H    0.972
   185   6 C    3.948 --   184 C    1.586   186 C    1.229   200 H    0.973
   186   6 C    3.914 --   188 C    1.335   185 C    1.229   187 N    1.203
   187   7 N    3.585 --   183 C    1.227   186 C    1.203   201 H    0.898
   188   6 C    3.922 --   189 C    1.373   186 C    1.335   202 H    0.963
   189   6 C    3.926 --   188 C    1.373   190 N    1.294   167 C    1.115
   190   7 N    2.999 --   169 C    1.364   189 C    1.294
   191   1 H    0.999 --   167 C    0.973
   192   1 H    0.999 --   168 C    0.972
   193   1 H    0.998 --   172 C    0.972
   194   1 H    0.998 --   173 C    0.973
   195   1 H    0.954 --   175 N    0.898
   196   1 H    0.997 --   176 C    0.963
   197   1 H    0.999 --   178 C    0.973
   198   1 H    0.999 --   179 C    0.972
   199   1 H    0.998 --   184 C    0.972
   200   1 H    0.998 --   185 C    0.973
   201   1 H    0.954 --   187 N    0.898
   202   1 H    0.997 --   188 C    0.963
   203   6 C    3.961 --   204 C    1.716   225 C    1.115   227 H    0.973
   204   6 C    3.960 --   203 C    1.716   205 C    1.123   228 H    0.972
   205   6 C    3.917 --   226 N    1.365   206 C    1.240   204 C    1.123
   206   6 C    3.925 --   207 C    1.243   205 C    1.240    90 C    1.198
   207   6 C    3.903 --   206 C    1.243   208 C    1.241   211 N    1.227
   208   6 C    3.952 --   209 C    1.587   207 C    1.241   229 H    0.972
   209   6 C    3.948 --   208 C    1.587   210 C    1.228   230 H    0.973
   210   6 C    3.914 --   212 C    1.336   209 C    1.228   211 N    1.203
   211   7 N    3.585 --   207 C    1.227   210 C    1.203   231 H    0.898
   212   6 C    3.922 --   213 C    1.371   210 C    1.336   232 H    0.963
   213   6 C    3.926 --   212 C    1.371   217 N    1.295   214 C    1.115
   214   6 C    3.961 --   215 C    1.716   213 C    1.115   233 H    0.973
   215   6 C    3.960 --   214 C    1.716   216 C    1.123   234 H    0.972
   216   6 C    3.917 --   217 N    1.363   218 C    1.241   215 C    1.123
   217   7 N    2.999 --   216 C    1.363   213 C    1.295
   218   6 C    3.925 --   219 C    1.243   216 C    1.241    91 C    1.196
   219   6 C    3.903 --   218 C    1.243   220 C    1.242   223 N    1.227
   220   6 C    3.952 --   221 C    1.587   219 C    1.242   235 H    0.972
   221   6 C    3.949 --   220 C    1.587   222 C    1.229   236 H    0.973
   222   6 C    3.914 --   224 C    1.335   221 C    1.229   223 N    1.203
   223   7 N    3.586 --   219 C    1.227   222 C    1.203   237 H    0.898
   224   6 C    3.922 --   225 C    1.373   222 C    1.335   238 H    0.963
   225   6 C    3.926 --   224 C    1.373   226 N    1.294   203 C    1.115
   226   7 N    2.999 --   205 C    1.365   225 C    1.294
   227   1 H    0.999 --   203 C    0.973
   228   1 H    0.999 --   204 C    0.972
   229   1 H    0.998 --   208 C    0.972
   230   1 H    0.998 --   209 C    0.973
   231   1 H    0.954 --   211 N    0.898
   232   1 H    0.997 --   212 C    0.963
   233   1 H    0.999 --   214 C    0.973
   234   1 H    0.999 --   215 C    0.972
   235   1 H    0.998 --   220 C    0.972
   236   1 H    0.998 --   221 C    0.973
   237   1 H    0.954 --   223 N    0.898
   238   1 H    0.997 --   224 C    0.963
 ---------------------------------------------------------------------------

Topologies differ in total number of bonds
Writing topology from bond orders to xtbtopo.mol

molecular dipole:
                 x           y           z       tot (Debye)
 q only:        0.002      -0.000      -0.014
   full:        0.002      -0.001      -0.025       0.063
molecular quadrupole (traceless):
                xx          xy          yy          xz          yz          zz
 q only:       93.939     -65.109     -21.706       1.728      -4.140     -72.233
  q+dip:      172.390     -33.794       1.224      -3.107     -14.451    -173.613
   full:      127.157     -32.464     -12.652      -3.190      -8.422    -114.505


           -------------------------------------------------
          | TOTAL ENERGY             -407.117193597748 Eh   |
          | GRADIENT NORM               0.000803395521 Eh/α |
          | HOMO-LUMO GAP               0.737519116055 eV   |
           -------------------------------------------------

------------------------------------------------------------------------
 * finished run on 2021/11/21 at 19:13:56.499     
------------------------------------------------------------------------
 total:
 * wall-time:     0 d,  0 h,  0 min,  2.698 sec
 *  cpu-time:     0 d,  0 h,  0 min,  2.698 sec
 * ratio c/w:     1.000 speedup
 SCF:
 * wall-time:     0 d,  0 h,  0 min,  2.573 sec
 *  cpu-time:     0 d,  0 h,  0 min,  2.573 sec
 * ratio c/w:     1.000 speedup

