      -----------------------------------------------------------      
     |                   =====================                   |     
     |                           x T B                           |     
     |                   =====================                   |     
     |                         S. Grimme                         |     
     |          Mulliken Center for Theoretical Chemistry        |     
     |                    University of Bonn                     |     
      -----------------------------------------------------------      

   * xtb version 6.4.1 (bd6e46d) compiled by 'conda@4901f00b25ba' on 2021-06-10

   xtb is free software: you can redistribute it and/or modify it under
   the terms of the GNU Lesser General Public License as published by
   the Free Software Foundation, either version 3 of the License, or
   (at your option) any later version.
   
   xtb is distributed in the hope that it will be useful,
   but WITHOUT ANY WARRANTY; without even the implied warranty of
   MERCHANTABILITY or FITNESS FOR A PARTICULAR PURPOSE.  See the
   GNU Lesser General Public License for more details.
   
   Cite this work as:
   * C. Bannwarth, E. Caldeweyher, S. Ehlert, A. Hansen, P. Pracht,
     J. Seibert, S. Spicher, S. Grimme, WIREs Comput. Mol. Sci., 2020, 11,
     e01493. DOI: 10.1002/wcms.1493
   
   for GFN2-xTB:
   * C. Bannwarth, S. Ehlert and S. Grimme., J. Chem. Theory Comput., 2019,
     15, 1652-1671. DOI: 10.1021/acs.jctc.8b01176
   for GFN1-xTB:
   * S. Grimme, C. Bannwarth, P. Shushkov, J. Chem. Theory Comput., 2017,
     13, 1989-2009. DOI: 10.1021/acs.jctc.7b00118
   for GFN0-xTB:
   * P. Pracht, E. Caldeweyher, S. Ehlert, S. Grimme, ChemRxiv, 2019, preprint.
     DOI: 10.26434/chemrxiv.8326202.v1
   for GFN-FF:
   * S. Spicher and S. Grimme, Angew. Chem. Int. Ed., 2020, 59, 15665-15673.
     DOI: 10.1002/anie.202004239
   
   for DFT-D4:
   * E. Caldeweyher, C. Bannwarth and S. Grimme, J. Chem. Phys., 2017,
     147, 034112. DOI: 10.1063/1.4993215
   * E. Caldeweyher, S. Ehlert, A. Hansen, H. Neugebauer, S. Spicher,
     C. Bannwarth and S. Grimme, J. Chem. Phys., 2019, 150, 154122.
     DOI: 10.1063/1.5090222
   * E. Caldeweyher, J.-M. Mewes, S. Ehlert and S. Grimme, Phys. Chem. Chem. Phys.
     2020, 22, 8499-8512. DOI: 10.1039/D0CP00502A
   
   for sTDA-xTB:
   * S. Grimme and C. Bannwarth, J. Chem. Phys., 2016, 145, 054103.
     DOI: 10.1063/1.4959605
   
   in the mass-spec context:
   * V. Asgeirsson, C. Bauer and S. Grimme, Chem. Sci., 2017, 8, 4879.
     DOI: 10.1039/c7sc00601b
   * J. Koopman and S. Grimme, ACS Omega 2019, 4, 12, 15120-15133.
     DOI: 10.1021/acsomega.9b02011
   
   for metadynamics refer to:
   * S. Grimme, J. Chem. Theory Comput., 2019, 155, 2847-2862
     DOI: 10.1021/acs.jctc.9b00143
   
   for SPH calculations refer to:
   * S. Spicher and S. Grimme, J. Chem. Theory Comput., 2021, 17, 1701-1714
     DOI: 10.1021/acs.jctc.0c01306
   
   with help from (in alphabetical order)
   P. Atkinson, C. Bannwarth, F. Bohle, G. Brandenburg, E. Caldeweyher
   M. Checinski, S. Dohm, S. Ehlert, S. Ehrlich, I. Gerasimov, J. Koopman
   C. Lavigne, S. Lehtola, F. März, M. Müller, F. Musil, H. Neugebauer
   J. Pisarek, C. Plett, P. Pracht, J. Seibert, P. Shushkov, S. Spicher
   M. Stahn, M. Steiner, T. Strunk, J. Stückrath, T. Rose, and J. Unsleber
   
 * started run on 2021/11/21 at 21:22:11.652     

           -------------------------------------------------
          |                Calculation Setup                |
           -------------------------------------------------

          program call               : /home/jeff/miniconda3/bin/xtb /home/jeff/chem/final-year-proejct/Cu+2_6_7_outenergy/input_structure.xyz --gfn 2 --parallel 1 --etemp 300 --chrg 0 --uhf 0 -I det_control.in
          coordinate file            : /home/jeff/chem/final-year-proejct/Cu+2_6_7_outenergy/input_structure.xyz
          omp threads                :                     1
          number of atoms            :                   283
          number of electrons        :                   993
          charge                     :                     0
          spin                       :                   0.5
          first test random number   :      0.11815700487560

   ID    Z sym.   atoms
    1   29 Cu     1, 37, 109, 144, 179, 214, 249
    2    6 C      2-9, 11-15, 17-21, 23, 24, 38-45, 47-51, 53-57, 59, 60,
                  73-108, 110-117, 119-123, 125-129, 131, 132, 145-152,
                  154-158, 160-164, 166, 167, 180-187, 189-193, 195-199, 201,
                  202, 215-222, 224-228, 230-234, 236, 237, 250-257, 259-263,
                  265-269, 271, 272
    3    7 N      10, 16, 22, 25, 46, 52, 58, 61, 118, 124, 130, 133, 153,
                  159, 165, 168, 188, 194, 200, 203, 223, 229, 235, 238, 258,
                  264, 270, 273
    4    1 H      26-36, 62-72, 134-143, 169-178, 204-213, 239-248, 274-283

           -------------------------------------------------
          |                 G F N 2 - x T B                 |
           -------------------------------------------------

        Reference                      10.1021/acs.jctc.8b01176
      * Hamiltonian:
        H0-scaling (s, p, d)           1.850000    2.230000    2.230000
        zeta-weighting                 0.500000
      * Dispersion:
        s8                             2.700000
        a1                             0.520000
        a2                             5.000000
        s9                             5.000000
      * Repulsion:
        kExp                           1.500000    1.000000
        rExp                           1.000000
      * Coulomb:
        alpha                          2.000000
        third order                    shell-resolved
        anisotropic                    true
        a3                             3.000000
        a5                             4.000000
        cn-shift                       1.200000
        cn-exp                         4.000000
        max-rad                        5.000000


          ...................................................
          :                      SETUP                      :
          :.................................................:
          :  # basis functions                 958          :
          :  # atomic orbitals                 951          :
          :  # shells                          501          :
          :  # electrons                       993          :
          :  max. iterations                   250          :
          :  Hamiltonian                  GFN2-xTB          :
          :  restarted?                      false          :
          :  GBSA solvation                  false          :
          :  PC potential                    false          :
          :  electronic temp.          300.0000000     K    :
          :  accuracy                    1.0000000          :
          :  -> integral cutoff          0.2500000E+02      :
          :  -> integral neglect         0.1000000E-07      :
          :  -> SCF convergence          0.1000000E-05 Eh   :
          :  -> wf. convergence          0.1000000E-03 e    :
          :  Broyden damping             0.4000000          :
          ...................................................

 iter      E             dE          RMSdq      gap      omega  full diag
   1   -531.9126593 -0.531913E+03  0.641E+00    0.00       0.0  T
   2   -531.5719156  0.340744E+00  0.398E+00    0.00       1.0  T
   3   -332.8570515  0.198715E+03  0.104E+01    0.03       1.0  T
   4   -490.3272347 -0.157470E+03  0.595E+00    0.01       1.0  T
   5   -524.0262462 -0.336990E+02  0.238E+00    0.03       1.0  T
   6   -528.6897553 -0.466351E+01  0.165E+00    0.14       1.0  T
   7   -529.3730490 -0.683294E+00  0.125E+00    0.02       1.0  T
   8   -529.6892456 -0.316197E+00  0.115E+00    0.05       1.0  T
   9   -531.0473200 -0.135807E+01  0.927E-01    0.30       1.0  T
  10   -531.1894542 -0.142134E+00  0.863E-01    0.36       1.0  T
  11   -531.2712973 -0.818432E-01  0.840E-01    0.17       1.0  T
  12   -531.4562763 -0.184979E+00  0.672E-01    0.05       1.0  T
  13   -531.3800871  0.761892E-01  0.769E-01    0.05       1.0  T
  14   -531.3203355  0.597516E-01  0.835E-01    0.07       1.0  T
  15   -531.6652024 -0.344867E+00  0.631E-01    0.02       1.0  T
  16   -531.2826927  0.382510E+00  0.821E-01    0.08       1.0  T
  17   -531.5860785 -0.303386E+00  0.637E-01    0.04       1.0  T
  18   -531.6476253 -0.615467E-01  0.623E-01    0.01       1.0  T
  19   -531.4874395  0.160186E+00  0.695E-01    0.06       1.0  T
  20   -531.6202350 -0.132795E+00  0.593E-01    0.00       1.0  T
  21   -531.9181826 -0.297948E+00  0.394E-01    0.01       1.0  T
  22   -531.9202134 -0.203085E-02  0.374E-01    0.01       1.0  T
  23   -532.0144188 -0.942054E-01  0.276E-01    0.01       1.0  T
  24   -531.9365638  0.778550E-01  0.351E-01    0.02       1.0  T
  25   -531.9720057 -0.354420E-01  0.329E-01    0.02       1.0  T
  26   -532.0194790 -0.474733E-01  0.259E-01    0.00       1.0  T
  27   -532.0748107 -0.553316E-01  0.160E-01    0.00       1.0  T
  28   -532.0788500 -0.403927E-02  0.146E-01    0.01       1.0  T
  29   -532.0883936 -0.954366E-02  0.119E-01    0.01       1.0  T
  30   -532.0909257 -0.253210E-02  0.108E-01    0.00       1.0  T
  31   -532.0971479 -0.622217E-02  0.819E-02    0.00       1.0  T
  32   -532.0888962  0.825172E-02  0.112E-01    0.00       1.0  T
  33   -532.0953306 -0.643444E-02  0.884E-02    0.00       1.0  T
  34   -532.0950572  0.273424E-03  0.894E-02    0.00       1.0  T
  35   -532.0987735 -0.371637E-02  0.707E-02    0.00       1.0  T
  36   -532.1026959 -0.392236E-02  0.427E-02    0.00       1.0  T
  37   -532.1030247 -0.328742E-03  0.404E-02    0.00       1.0  T
  38   -532.1029501  0.745247E-04  0.406E-02    0.00       1.0  T
  39   -532.1038450 -0.894888E-03  0.289E-02    0.00       1.0  T
  40   -532.1043907 -0.545681E-03  0.198E-02    0.00       1.0  T
  41   -532.1045881 -0.197406E-03  0.157E-02    0.00       1.0  T
  42   -532.1046357 -0.475540E-04  0.142E-02    0.00       1.0  T
  43   -532.1048017 -0.166003E-03  0.909E-03    0.00       1.0  T
  44   -532.1048581 -0.564173E-04  0.620E-03    0.00       1.0  T
  45   -532.1048949 -0.367724E-04  0.348E-03    0.00       1.7  T
  46   -532.1049032 -0.834261E-05  0.251E-03    0.00       2.4  T
  47   -532.1049089 -0.573901E-05  0.144E-03    0.00       4.1  T
  48   -532.1049113 -0.240669E-05  0.529E-04    0.00      11.2  T
  49   -532.1049115 -0.125767E-06  0.417E-04    0.00      14.2  T
  50   -532.1049115 -0.737224E-07  0.330E-04    0.00      18.0  T

   *** convergence criteria satisfied after 50 iterations ***

         #    Occupation            Energy/Eh            Energy/eV
      -------------------------------------------------------------
         1        2.0000           -0.6807275             -18.5235
       ...           ...                  ...                  ...
       491        2.0000           -0.3555701              -9.6756
       492        2.0000           -0.3520030              -9.5785
       493        2.0000           -0.3494423              -9.5088
       494        1.0075           -0.3234170              -8.8006
       495        1.0069           -0.3234158              -8.8006
       496        1.0056           -0.3234132              -8.8005
       497        1.0049           -0.3234118              -8.8005 (HOMO)
       498        1.0047           -0.3234115              -8.8005 (LUMO)
       499        0.9816           -0.3233666              -8.7993
       500        0.9809           -0.3233653              -8.7992
       501        0.0073           -0.3180334              -8.6541
       502        0.0005           -0.3155293              -8.5860
       ...           ...                  ...                  ...
       951                          1.7148029              46.6622
      -------------------------------------------------------------
                  HL-Gap            0.0000003 Eh            0.0000 eV
             Fermi-level           -0.3234023 Eh           -8.8002 eV

 SCC (total)                   0 d,  0 h,  0 min, 16.154 sec
 SCC setup                      ...        0 min,  0.015 sec (  0.093%)
 Dispersion                     ...        0 min,  0.030 sec (  0.184%)
 classical contributions        ...        0 min,  0.002 sec (  0.015%)
 integral evaluation            ...        0 min,  0.228 sec (  1.411%)
 iterations                     ...        0 min, 15.302 sec ( 94.726%)
 molecular gradient             ...        0 min,  0.536 sec (  3.319%)
 printout                       ...        0 min,  0.041 sec (  0.252%)

         :::::::::::::::::::::::::::::::::::::::::::::::::::::
         ::                     SUMMARY                     ::
         :::::::::::::::::::::::::::::::::::::::::::::::::::::
         :: total energy            -522.285421866187 Eh    ::
         :: gradient norm              0.000552932276 Eh/a0 ::
         :: HOMO-LUMO gap              0.000009437104 eV    ::
         ::.................................................::
         :: SCC energy              -532.104911538504 Eh    ::
         :: -> isotropic ES            0.195127525099 Eh    ::
         :: -> anisotropic ES          0.061637875354 Eh    ::
         :: -> anisotropic XC          0.266378582801 Eh    ::
         :: -> dispersion             -0.453581847360 Eh    ::
         :: repulsion energy           9.827230923995 Eh    ::
         :: add. restraining           0.000000000000 Eh    ::
         :: total charge               0.000000000000 e     ::
         :::::::::::::::::::::::::::::::::::::::::::::::::::::

           -------------------------------------------------
          |                Property Printout                |
           -------------------------------------------------

    * Orbital Energies and Occupations

         #    Occupation            Energy/Eh            Energy/eV
      -------------------------------------------------------------
         1        2.0000           -0.6807275             -18.5235
       ...           ...                  ...                  ...
       485        2.0000           -0.3708608             -10.0916
       486        2.0000           -0.3708587             -10.0916
       487        2.0000           -0.3695687             -10.0565
       488        2.0000           -0.3674169              -9.9979
       489        2.0000           -0.3637597              -9.8984
       490        2.0000           -0.3596301              -9.7860
       491        2.0000           -0.3555701              -9.6756
       492        2.0000           -0.3520030              -9.5785
       493        2.0000           -0.3494423              -9.5088
       494        1.0075           -0.3234170              -8.8006
       495        1.0069           -0.3234158              -8.8006
       496        1.0056           -0.3234132              -8.8005
       497        1.0049           -0.3234118              -8.8005 (HOMO)
       498        1.0047           -0.3234115              -8.8005 (LUMO)
       499        0.9816           -0.3233666              -8.7993
       500        0.9809           -0.3233653              -8.7992
       501        0.0073           -0.3180334              -8.6541
       502        0.0005           -0.3155293              -8.5860
       503        0.0000           -0.3119201              -8.4878
       504        0.0000           -0.3077906              -8.3754
       505                         -0.3036527              -8.2628
       506                         -0.3012540              -8.1975
       507                         -0.3012483              -8.1974
       508                         -0.3009236              -8.1885
       ...                                ...                  ...
       951                          1.7148029              46.6622
      -------------------------------------------------------------
                  HL-Gap            0.0000003 Eh            0.0000 eV
             Fermi-level           -0.3234023 Eh           -8.8002 eV

     #   Z          covCN         q      C6AA      α(0)
     1  29 Cu       2.957     0.199   146.165    27.529
     2   6 C        3.023    -0.051    29.228     8.868
     3   6 C        3.020    -0.049    29.192     8.863
     4   6 C        3.165     0.079    25.915     8.319
     5   6 C        2.953     0.017    27.635     8.622
     6   6 C        3.165     0.079    25.915     8.319
     7   6 C        3.020    -0.049    29.191     8.863
     8   6 C        3.023    -0.051    29.228     8.868
     9   6 C        3.148     0.077    26.019     8.344
    10   7 N        2.620    -0.172    24.723     7.385
    11   6 C        2.901    -0.049    29.227     8.864
    12   6 C        3.144     0.079    26.006     8.344
    13   6 C        3.019    -0.050    29.205     8.865
    14   6 C        3.020    -0.050    29.209     8.865
    15   6 C        3.144     0.079    25.992     8.341
    16   7 N        2.623    -0.170    24.683     7.379
    17   6 C        2.901    -0.051    29.272     8.871
    18   6 C        3.144     0.079    25.992     8.341
    19   6 C        3.020    -0.050    29.209     8.865
    20   6 C        3.019    -0.050    29.205     8.865
    21   6 C        3.144     0.079    26.006     8.344
    22   7 N        2.623    -0.170    24.683     7.379
    23   6 C        2.901    -0.049    29.227     8.864
    24   6 C        3.148     0.077    26.019     8.344
    25   7 N        2.620    -0.172    24.723     7.385
    26   1 H        0.926     0.035     2.520     2.482
    27   1 H        0.926     0.037     2.492     2.468
    28   1 H        0.926     0.037     2.492     2.468
    29   1 H        0.926     0.035     2.520     2.482
    30   1 H        0.926     0.050     2.317     2.380
    31   1 H        0.926     0.035     2.511     2.478
    32   1 H        0.926     0.035     2.512     2.478
    33   1 H        0.926     0.050     2.326     2.385
    34   1 H        0.926     0.035     2.512     2.478
    35   1 H        0.926     0.035     2.511     2.478
    36   1 H        0.926     0.050     2.317     2.380
    37  29 Cu       2.957     0.199   146.165    27.529
    38   6 C        3.023    -0.051    29.228     8.868
    39   6 C        3.020    -0.049    29.191     8.863
    40   6 C        3.165     0.079    25.915     8.319
    41   6 C        2.953     0.017    27.635     8.622
    42   6 C        3.165     0.079    25.916     8.320
    43   6 C        3.020    -0.049    29.191     8.862
    44   6 C        3.023    -0.051    29.228     8.868
    45   6 C        3.148     0.077    26.019     8.344
    46   7 N        2.620    -0.172    24.723     7.385
    47   6 C        2.901    -0.049    29.228     8.864
    48   6 C        3.144     0.079    26.007     8.344
    49   6 C        3.019    -0.050    29.205     8.865
    50   6 C        3.020    -0.050    29.209     8.865
    51   6 C        3.144     0.079    25.992     8.341
    52   7 N        2.623    -0.170    24.683     7.379
    53   6 C        2.901    -0.051    29.272     8.871
    54   6 C        3.144     0.079    25.992     8.341
    55   6 C        3.020    -0.050    29.209     8.865
    56   6 C        3.019    -0.050    29.205     8.865
    57   6 C        3.144     0.079    26.006     8.344
    58   7 N        2.623    -0.170    24.683     7.379
    59   6 C        2.901    -0.049    29.228     8.864
    60   6 C        3.148     0.077    26.019     8.344
    61   7 N        2.620    -0.172    24.723     7.385
    62   1 H        0.926     0.035     2.520     2.482
    63   1 H        0.926     0.037     2.492     2.469
    64   1 H        0.926     0.037     2.492     2.469
    65   1 H        0.926     0.035     2.520     2.482
    66   1 H        0.926     0.050     2.317     2.380
    67   1 H        0.926     0.035     2.511     2.478
    68   1 H        0.926     0.035     2.512     2.478
    69   1 H        0.926     0.050     2.326     2.385
    70   1 H        0.926     0.035     2.512     2.478
    71   1 H        0.926     0.035     2.511     2.478
    72   1 H        0.926     0.050     2.317     2.380
    73   6 C        1.995    -0.019    31.552     9.071
    74   6 C        1.963    -0.010    31.326     9.038
    75   6 C        1.965    -0.002    31.120     9.009
    76   6 C        1.965    -0.002    31.115     9.008
    77   6 C        1.963    -0.010    31.329     9.039
    78   6 C        1.995    -0.019    31.544     9.070
    79   6 C        1.995    -0.019    31.547     9.071
    80   6 C        1.963    -0.010    31.325     9.038
    81   6 C        1.965    -0.002    31.117     9.008
    82   6 C        1.965    -0.002    31.116     9.008
    83   6 C        1.963    -0.010    31.326     9.039
    84   6 C        1.995    -0.019    31.545     9.070
    85   6 C        1.995    -0.019    31.546     9.070
    86   6 C        1.963    -0.010    31.325     9.038
    87   6 C        1.965    -0.002    31.116     9.008
    88   6 C        1.965    -0.002    31.116     9.008
    89   6 C        1.963    -0.010    31.325     9.038
    90   6 C        1.995    -0.019    31.546     9.070
    91   6 C        1.995    -0.019    31.546     9.070
    92   6 C        1.963    -0.010    31.325     9.038
    93   6 C        1.965    -0.002    31.116     9.008
    94   6 C        1.965    -0.002    31.116     9.008
    95   6 C        1.963    -0.010    31.325     9.038
    96   6 C        1.995    -0.019    31.546     9.070
    97   6 C        1.995    -0.019    31.545     9.070
    98   6 C        1.963    -0.010    31.326     9.039
    99   6 C        1.965    -0.002    31.116     9.008
   100   6 C        1.965    -0.002    31.117     9.008
   101   6 C        1.963    -0.010    31.325     9.038
   102   6 C        1.995    -0.019    31.547     9.071
   103   6 C        1.995    -0.019    31.543     9.070
   104   6 C        1.963    -0.010    31.328     9.039
   105   6 C        1.965    -0.002    31.114     9.008
   106   6 C        1.965    -0.002    31.120     9.009
   107   6 C        1.963    -0.010    31.325     9.038
   108   6 C        1.995    -0.019    31.551     9.071
   109  29 Cu       2.948     0.201   146.132    27.526
   110   6 C        3.023    -0.051    29.228     8.868
   111   6 C        3.020    -0.049    29.200     8.864
   112   6 C        3.166     0.079    25.902     8.317
   113   6 C        2.953     0.017    27.638     8.623
   114   6 C        3.166     0.079    25.902     8.317
   115   6 C        3.020    -0.049    29.199     8.864
   116   6 C        3.023    -0.051    29.228     8.868
   117   6 C        3.149     0.077    26.027     8.345
   118   7 N        2.619    -0.173    24.758     7.390
   119   6 C        2.901    -0.047    29.172     8.856
   120   6 C        3.150     0.077    26.027     8.345
   121   6 C        3.023    -0.051    29.228     8.868
   122   6 C        3.020    -0.049    29.199     8.864
   123   6 C        3.166     0.079    25.901     8.317
   124   7 N        2.619    -0.173    24.757     7.390
   125   6 C        2.953     0.017    27.635     8.622
   126   6 C        3.166     0.079    25.901     8.316
   127   6 C        3.020    -0.049    29.199     8.864
   128   6 C        3.023    -0.051    29.228     8.868
   129   6 C        3.150     0.077    26.027     8.345
   130   7 N        2.619    -0.173    24.758     7.390
   131   6 C        2.901    -0.047    29.172     8.856
   132   6 C        3.149     0.077    26.027     8.345
   133   7 N        2.619    -0.173    24.758     7.390
   134   1 H        0.926     0.034     2.527     2.486
   135   1 H        0.926     0.036     2.502     2.474
   136   1 H        0.926     0.036     2.502     2.474
   137   1 H        0.926     0.034     2.527     2.486
   138   1 H        0.926     0.050     2.315     2.379
   139   1 H        0.926     0.034     2.527     2.486
   140   1 H        0.926     0.036     2.501     2.473
   141   1 H        0.926     0.036     2.501     2.473
   142   1 H        0.926     0.034     2.527     2.486
   143   1 H        0.926     0.050     2.315     2.379
   144  29 Cu       2.948     0.201   146.128    27.526
   145   6 C        3.023    -0.051    29.228     8.868
   146   6 C        3.020    -0.049    29.199     8.864
   147   6 C        3.166     0.079    25.901     8.317
   148   6 C        2.953     0.017    27.637     8.623
   149   6 C        3.166     0.079    25.901     8.316
   150   6 C        3.020    -0.049    29.200     8.864
   151   6 C        3.023    -0.051    29.228     8.868
   152   6 C        3.150     0.077    26.028     8.345
   153   7 N        2.619    -0.173    24.757     7.390
   154   6 C        2.901    -0.047    29.171     8.856
   155   6 C        3.150     0.077    26.027     8.345
   156   6 C        3.023    -0.051    29.228     8.868
   157   6 C        3.020    -0.049    29.199     8.864
   158   6 C        3.166     0.079    25.901     8.316
   159   7 N        2.619    -0.173    24.757     7.390
   160   6 C        2.953     0.017    27.636     8.622
   161   6 C        3.166     0.079    25.902     8.317
   162   6 C        3.020    -0.049    29.200     8.864
   163   6 C        3.023    -0.051    29.228     8.868
   164   6 C        3.150     0.077    26.028     8.345
   165   7 N        2.619    -0.173    24.756     7.390
   166   6 C        2.901    -0.047    29.171     8.856
   167   6 C        3.150     0.077    26.028     8.345
   168   7 N        2.619    -0.173    24.757     7.390
   169   1 H        0.926     0.034     2.527     2.486
   170   1 H        0.926     0.036     2.501     2.473
   171   1 H        0.926     0.036     2.501     2.473
   172   1 H        0.926     0.034     2.527     2.486
   173   1 H        0.926     0.050     2.314     2.379
   174   1 H        0.926     0.034     2.527     2.486
   175   1 H        0.926     0.036     2.501     2.473
   176   1 H        0.926     0.036     2.501     2.473
   177   1 H        0.926     0.034     2.527     2.486
   178   1 H        0.926     0.050     2.314     2.379
   179  29 Cu       2.948     0.201   146.127    27.526
   180   6 C        3.023    -0.051    29.228     8.868
   181   6 C        3.020    -0.049    29.199     8.864
   182   6 C        3.166     0.079    25.902     8.317
   183   6 C        2.953     0.017    27.637     8.623
   184   6 C        3.166     0.079    25.900     8.316
   185   6 C        3.020    -0.049    29.199     8.864
   186   6 C        3.023    -0.051    29.228     8.868
   187   6 C        3.150     0.077    26.027     8.345
   188   7 N        2.619    -0.173    24.756     7.390
   189   6 C        2.901    -0.047    29.171     8.856
   190   6 C        3.150     0.077    26.027     8.345
   191   6 C        3.023    -0.051    29.228     8.868
   192   6 C        3.020    -0.049    29.199     8.864
   193   6 C        3.166     0.079    25.901     8.316
   194   7 N        2.619    -0.173    24.756     7.390
   195   6 C        2.953     0.017    27.637     8.623
   196   6 C        3.166     0.079    25.901     8.316
   197   6 C        3.020    -0.049    29.200     8.864
   198   6 C        3.023    -0.051    29.228     8.868
   199   6 C        3.150     0.077    26.027     8.345
   200   7 N        2.619    -0.173    24.756     7.390
   201   6 C        2.901    -0.047    29.171     8.856
   202   6 C        3.150     0.077    26.028     8.345
   203   7 N        2.619    -0.173    24.756     7.390
   204   1 H        0.926     0.034     2.526     2.486
   205   1 H        0.926     0.036     2.501     2.473
   206   1 H        0.926     0.036     2.501     2.473
   207   1 H        0.926     0.034     2.526     2.486
   208   1 H        0.926     0.050     2.314     2.379
   209   1 H        0.926     0.034     2.526     2.486
   210   1 H        0.926     0.036     2.501     2.473
   211   1 H        0.926     0.036     2.501     2.473
   212   1 H        0.926     0.034     2.526     2.486
   213   1 H        0.926     0.050     2.314     2.379
   214  29 Cu       2.948     0.201   146.128    27.526
   215   6 C        3.023    -0.051    29.228     8.868
   216   6 C        3.020    -0.049    29.199     8.864
   217   6 C        3.166     0.079    25.901     8.317
   218   6 C        2.953     0.017    27.636     8.623
   219   6 C        3.166     0.079    25.901     8.317
   220   6 C        3.020    -0.049    29.200     8.864
   221   6 C        3.023    -0.051    29.228     8.868
   222   6 C        3.150     0.077    26.028     8.345
   223   7 N        2.619    -0.173    24.756     7.390
   224   6 C        2.901    -0.047    29.171     8.856
   225   6 C        3.150     0.077    26.028     8.345
   226   6 C        3.023    -0.051    29.228     8.868
   227   6 C        3.020    -0.049    29.199     8.864
   228   6 C        3.166     0.079    25.901     8.317
   229   7 N        2.619    -0.173    24.757     7.390
   230   6 C        2.953     0.017    27.637     8.623
   231   6 C        3.166     0.079    25.901     8.316
   232   6 C        3.020    -0.049    29.200     8.864
   233   6 C        3.023    -0.051    29.228     8.868
   234   6 C        3.150     0.077    26.028     8.345
   235   7 N        2.619    -0.173    24.757     7.390
   236   6 C        2.901    -0.047    29.171     8.856
   237   6 C        3.150     0.077    26.027     8.345
   238   7 N        2.619    -0.173    24.757     7.390
   239   1 H        0.926     0.034     2.527     2.486
   240   1 H        0.926     0.036     2.501     2.473
   241   1 H        0.926     0.036     2.501     2.473
   242   1 H        0.926     0.034     2.527     2.486
   243   1 H        0.926     0.050     2.314     2.379
   244   1 H        0.926     0.034     2.527     2.486
   245   1 H        0.926     0.036     2.501     2.473
   246   1 H        0.926     0.036     2.501     2.473
   247   1 H        0.926     0.034     2.527     2.486
   248   1 H        0.926     0.050     2.314     2.379
   249  29 Cu       2.948     0.201   146.132    27.526
   250   6 C        3.023    -0.051    29.228     8.868
   251   6 C        3.020    -0.049    29.199     8.864
   252   6 C        3.166     0.079    25.901     8.317
   253   6 C        2.953     0.017    27.635     8.622
   254   6 C        3.166     0.079    25.901     8.317
   255   6 C        3.020    -0.049    29.199     8.864
   256   6 C        3.023    -0.051    29.228     8.868
   257   6 C        3.150     0.077    26.027     8.345
   258   7 N        2.619    -0.173    24.758     7.390
   259   6 C        2.901    -0.047    29.172     8.856
   260   6 C        3.149     0.077    26.027     8.345
   261   6 C        3.023    -0.051    29.228     8.868
   262   6 C        3.020    -0.049    29.200     8.864
   263   6 C        3.166     0.079    25.902     8.317
   264   7 N        2.619    -0.173    24.758     7.390
   265   6 C        2.953     0.017    27.638     8.623
   266   6 C        3.166     0.079    25.902     8.317
   267   6 C        3.020    -0.049    29.199     8.864
   268   6 C        3.023    -0.051    29.228     8.868
   269   6 C        3.149     0.077    26.027     8.345
   270   7 N        2.619    -0.173    24.759     7.390
   271   6 C        2.901    -0.047    29.172     8.856
   272   6 C        3.149     0.077    26.027     8.345
   273   7 N        2.619    -0.173    24.757     7.390
   274   1 H        0.926     0.034     2.527     2.486
   275   1 H        0.926     0.036     2.501     2.473
   276   1 H        0.926     0.036     2.501     2.473
   277   1 H        0.926     0.034     2.527     2.486
   278   1 H        0.926     0.050     2.315     2.379
   279   1 H        0.926     0.034     2.527     2.486
   280   1 H        0.926     0.036     2.502     2.474
   281   1 H        0.926     0.036     2.502     2.474
   282   1 H        0.926     0.034     2.527     2.486
   283   1 H        0.926     0.050     2.315     2.379

 Mol. C6AA /au·bohr⁶  :    1617956.583253
 Mol. C8AA /au·bohr⁸  :   46668892.032220
 Mol. α(0) /au        :       2110.161061


Wiberg/Mayer (AO) data.
largest (>0.10) Wiberg bond orders for each atom

 ---------------------------------------------------------------------------
     #   Z sym  total        # sym  WBO       # sym  WBO       # sym  WBO
 ---------------------------------------------------------------------------
     1  29 Cu   2.332 --    16 N    0.535    22 N    0.535    10 N    0.534
                            25 N    0.534
     2   6 C    3.946 --     3 C    1.650    24 C    1.167    26 H    0.972
     3   6 C    3.949 --     2 C    1.650     4 C    1.175    27 H    0.971
     4   6 C    3.908 --    25 N    1.288     5 C    1.248     3 C    1.175
     5   6 C    3.942 --     6 C    1.248     4 C    1.248    73 C    1.188
     6   6 C    3.908 --    10 N    1.288     5 C    1.248     7 C    1.175
     7   6 C    3.949 --     8 C    1.650     6 C    1.175    28 H    0.971
     8   6 C    3.946 --     7 C    1.650     9 C    1.167    29 H    0.972
     9   6 C    3.921 --    11 C    1.355    10 N    1.249     8 C    1.167
    10   7 N    3.382 --     6 C    1.288     9 C    1.249     1 Cu   0.534
    11   6 C    3.932 --     9 C    1.355    12 C    1.352    30 H    0.964
    12   6 C    3.927 --    11 C    1.352    16 N    1.263    13 C    1.158
    13   6 C    3.950 --    14 C    1.666    12 C    1.158    31 H    0.972
    14   6 C    3.947 --    13 C    1.666    15 C    1.158    32 H    0.972
    15   6 C    3.929 --    17 C    1.352    16 N    1.265    14 C    1.158
    16   7 N    3.377 --    15 C    1.265    12 C    1.263     1 Cu   0.535
    17   6 C    3.926 --    15 C    1.352    18 C    1.352    33 H    0.964
    18   6 C    3.929 --    17 C    1.352    22 N    1.265    19 C    1.158
    19   6 C    3.947 --    20 C    1.666    18 C    1.158    34 H    0.972
    20   6 C    3.950 --    19 C    1.666    21 C    1.158    35 H    0.972
    21   6 C    3.927 --    23 C    1.352    22 N    1.263    20 C    1.158
    22   7 N    3.377 --    18 C    1.265    21 C    1.263     1 Cu   0.535
    23   6 C    3.932 --    24 C    1.355    21 C    1.352    36 H    0.964
    24   6 C    3.921 --    23 C    1.355    25 N    1.248     2 C    1.167
    25   7 N    3.382 --     4 C    1.288    24 C    1.248     1 Cu   0.534
    26   1 H    0.998 --     2 C    0.972
    27   1 H    0.998 --     3 C    0.971
    28   1 H    0.998 --     7 C    0.971
    29   1 H    0.998 --     8 C    0.972
    30   1 H    0.996 --    11 C    0.964
    31   1 H    0.998 --    13 C    0.972
    32   1 H    0.998 --    14 C    0.972
    33   1 H    0.996 --    17 C    0.964
    34   1 H    0.998 --    19 C    0.972
    35   1 H    0.998 --    20 C    0.972
    36   1 H    0.996 --    23 C    0.964
    37  29 Cu   2.332 --    52 N    0.535    58 N    0.535    46 N    0.534
                            61 N    0.534
    38   6 C    3.946 --    39 C    1.650    60 C    1.167    62 H    0.972
    39   6 C    3.949 --    38 C    1.650    40 C    1.175    63 H    0.971
    40   6 C    3.908 --    61 N    1.288    41 C    1.249    39 C    1.175
    41   6 C    3.942 --    42 C    1.249    40 C    1.249   108 C    1.188
    42   6 C    3.908 --    46 N    1.288    41 C    1.249    43 C    1.175
    43   6 C    3.949 --    44 C    1.650    42 C    1.175    64 H    0.971
    44   6 C    3.946 --    43 C    1.650    45 C    1.167    65 H    0.972
    45   6 C    3.921 --    47 C    1.355    46 N    1.249    44 C    1.167
    46   7 N    3.382 --    42 C    1.288    45 C    1.249    37 Cu   0.534
    47   6 C    3.932 --    45 C    1.355    48 C    1.352    66 H    0.964
    48   6 C    3.927 --    47 C    1.352    52 N    1.263    49 C    1.158
    49   6 C    3.950 --    50 C    1.666    48 C    1.158    67 H    0.972
    50   6 C    3.947 --    49 C    1.666    51 C    1.158    68 H    0.972
    51   6 C    3.929 --    53 C    1.352    52 N    1.265    50 C    1.158
    52   7 N    3.377 --    51 C    1.265    48 C    1.263    37 Cu   0.535
    53   6 C    3.926 --    51 C    1.352    54 C    1.352    69 H    0.964
    54   6 C    3.929 --    53 C    1.352    58 N    1.265    55 C    1.158
    55   6 C    3.947 --    56 C    1.666    54 C    1.158    70 H    0.972
    56   6 C    3.950 --    55 C    1.666    57 C    1.158    71 H    0.972
    57   6 C    3.927 --    59 C    1.352    58 N    1.263    56 C    1.158
    58   7 N    3.377 --    54 C    1.265    57 C    1.263    37 Cu   0.535
    59   6 C    3.932 --    60 C    1.355    57 C    1.352    72 H    0.964
    60   6 C    3.921 --    59 C    1.355    61 N    1.249    38 C    1.167
    61   7 N    3.382 --    40 C    1.288    60 C    1.249    37 Cu   0.534
    62   1 H    0.998 --    38 C    0.972
    63   1 H    0.998 --    39 C    0.971
    64   1 H    0.998 --    43 C    0.971
    65   1 H    0.998 --    44 C    0.972
    66   1 H    0.996 --    47 C    0.964
    67   1 H    0.998 --    49 C    0.972
    68   1 H    0.998 --    50 C    0.972
    69   1 H    0.996 --    53 C    0.964
    70   1 H    0.998 --    55 C    0.972
    71   1 H    0.998 --    56 C    0.972
    72   1 H    0.996 --    59 C    0.964
    73   6 C    3.883 --    74 C    2.441     5 C    1.188    76 C    0.193
    74   6 C    3.927 --    73 C    2.441    75 C    1.333
    75   6 C    3.918 --    76 C    2.355    74 C    1.333    78 C    0.192
    76   6 C    3.919 --    75 C    2.355    77 C    1.334    73 C    0.193
    77   6 C    3.924 --    78 C    2.438    76 C    1.334
    78   6 C    3.883 --    77 C    2.438   113 C    1.191    75 C    0.192
    79   6 C    3.882 --    80 C    2.436   125 C    1.192    82 C    0.192
    80   6 C    3.923 --    79 C    2.436    81 C    1.336
    81   6 C    3.917 --    82 C    2.352    80 C    1.336    84 C    0.192
    82   6 C    3.917 --    81 C    2.352    83 C    1.336    79 C    0.192
    83   6 C    3.923 --    84 C    2.436    82 C    1.336
    84   6 C    3.882 --    83 C    2.436   148 C    1.193    81 C    0.192
    85   6 C    3.882 --    86 C    2.436   160 C    1.193    88 C    0.192
    86   6 C    3.923 --    85 C    2.436    87 C    1.336
    87   6 C    3.917 --    88 C    2.352    86 C    1.336    90 C    0.192
    88   6 C    3.917 --    87 C    2.352    89 C    1.336    85 C    0.192
    89   6 C    3.923 --    90 C    2.436    88 C    1.336
    90   6 C    3.882 --    89 C    2.436   183 C    1.193    87 C    0.192
    91   6 C    3.882 --    92 C    2.436   195 C    1.193    94 C    0.192
    92   6 C    3.923 --    91 C    2.436    93 C    1.336
    93   6 C    3.917 --    94 C    2.352    92 C    1.336    96 C    0.192
    94   6 C    3.917 --    93 C    2.352    95 C    1.336    91 C    0.192
    95   6 C    3.923 --    96 C    2.436    94 C    1.336
    96   6 C    3.882 --    95 C    2.436   218 C    1.193    93 C    0.192
    97   6 C    3.882 --    98 C    2.436   230 C    1.192   100 C    0.192
    98   6 C    3.923 --    97 C    2.436    99 C    1.336
    99   6 C    3.918 --   100 C    2.352    98 C    1.336   102 C    0.192
   100   6 C    3.917 --    99 C    2.352   101 C    1.336    97 C    0.192
   101   6 C    3.923 --   102 C    2.436   100 C    1.336
   102   6 C    3.882 --   101 C    2.436   253 C    1.192    99 C    0.192
   103   6 C    3.883 --   104 C    2.439   265 C    1.191   106 C    0.192
   104   6 C    3.924 --   103 C    2.439   105 C    1.333
   105   6 C    3.919 --   106 C    2.356   104 C    1.333   108 C    0.193
   106   6 C    3.918 --   105 C    2.356   107 C    1.332   103 C    0.192
   107   6 C    3.927 --   108 C    2.442   106 C    1.332
   108   6 C    3.883 --   107 C    2.442    41 C    1.188   105 C    0.193
   109  29 Cu   2.303 --   118 N    0.529   133 N    0.528   124 N    0.528
                           130 N    0.528
   110   6 C    3.947 --   111 C    1.649   132 C    1.168   134 H    0.972
   111   6 C    3.948 --   110 C    1.649   112 C    1.176   135 H    0.971
   112   6 C    3.908 --   133 N    1.291   113 C    1.245   111 C    1.176
   113   6 C    3.930 --   114 C    1.246   112 C    1.245    78 C    1.191
   114   6 C    3.908 --   118 N    1.291   113 C    1.246   115 C    1.176
   115   6 C    3.948 --   116 C    1.649   114 C    1.176   136 H    0.971
   116   6 C    3.947 --   115 C    1.649   117 C    1.168   137 H    0.972
   117   6 C    3.920 --   119 C    1.354   118 N    1.248   116 C    1.168
   118   7 N    3.372 --   114 C    1.291   117 C    1.248   109 Cu   0.529
   119   6 C    3.926 --   117 C    1.354   120 C    1.354   138 H    0.963
   120   6 C    3.920 --   119 C    1.354   124 N    1.248   121 C    1.168
   121   6 C    3.947 --   122 C    1.649   120 C    1.168   139 H    0.972
   122   6 C    3.948 --   121 C    1.649   123 C    1.176   140 H    0.971
   123   6 C    3.908 --   124 N    1.291   125 C    1.245   122 C    1.176
   124   7 N    3.372 --   123 C    1.291   120 C    1.248   109 Cu   0.528
   125   6 C    3.930 --   126 C    1.245   123 C    1.245    79 C    1.192
   126   6 C    3.908 --   130 N    1.291   125 C    1.245   127 C    1.176
   127   6 C    3.948 --   128 C    1.649   126 C    1.176   141 H    0.971
   128   6 C    3.947 --   127 C    1.649   129 C    1.168   142 H    0.972
   129   6 C    3.920 --   131 C    1.354   130 N    1.248   128 C    1.168
   130   7 N    3.372 --   126 C    1.291   129 C    1.248   109 Cu   0.528
   131   6 C    3.926 --   132 C    1.354   129 C    1.354   143 H    0.963
   132   6 C    3.920 --   131 C    1.354   133 N    1.248   110 C    1.168
   133   7 N    3.372 --   112 C    1.291   132 C    1.248   109 Cu   0.528
   134   1 H    0.998 --   110 C    0.972
   135   1 H    0.998 --   111 C    0.971
   136   1 H    0.998 --   115 C    0.971
   137   1 H    0.998 --   116 C    0.972
   138   1 H    0.996 --   119 C    0.963
   139   1 H    0.998 --   121 C    0.972
   140   1 H    0.998 --   122 C    0.971
   141   1 H    0.998 --   127 C    0.971
   142   1 H    0.998 --   128 C    0.972
   143   1 H    0.996 --   131 C    0.963
   144  29 Cu   2.304 --   153 N    0.529   165 N    0.529   168 N    0.529
                           159 N    0.529
   145   6 C    3.947 --   146 C    1.649   167 C    1.168   169 H    0.972
   146   6 C    3.948 --   145 C    1.649   147 C    1.176   170 H    0.971
   147   6 C    3.908 --   168 N    1.291   148 C    1.245   146 C    1.176
   148   6 C    3.929 --   147 C    1.245   149 C    1.245    84 C    1.193
   149   6 C    3.908 --   153 N    1.291   148 C    1.245   150 C    1.176
   150   6 C    3.948 --   151 C    1.649   149 C    1.176   171 H    0.971
   151   6 C    3.947 --   150 C    1.649   152 C    1.168   172 H    0.972
   152   6 C    3.920 --   154 C    1.354   153 N    1.247   151 C    1.168
   153   7 N    3.372 --   149 C    1.291   152 C    1.247   144 Cu   0.529
   154   6 C    3.925 --   152 C    1.354   155 C    1.354   173 H    0.963
   155   6 C    3.920 --   154 C    1.354   159 N    1.247   156 C    1.168
   156   6 C    3.947 --   157 C    1.649   155 C    1.168   174 H    0.972
   157   6 C    3.948 --   156 C    1.649   158 C    1.176   175 H    0.971
   158   6 C    3.908 --   159 N    1.291   160 C    1.245   157 C    1.176
   159   7 N    3.372 --   158 C    1.291   155 C    1.247   144 Cu   0.529
   160   6 C    3.929 --   158 C    1.245   161 C    1.245    85 C    1.193
   161   6 C    3.908 --   165 N    1.291   160 C    1.245   162 C    1.176
   162   6 C    3.948 --   163 C    1.649   161 C    1.176   176 H    0.971
   163   6 C    3.947 --   162 C    1.649   164 C    1.168   177 H    0.972
   164   6 C    3.920 --   166 C    1.354   165 N    1.247   163 C    1.168
   165   7 N    3.372 --   161 C    1.291   164 C    1.247   144 Cu   0.529
   166   6 C    3.925 --   167 C    1.354   164 C    1.354   178 H    0.963
   167   6 C    3.920 --   166 C    1.354   168 N    1.247   145 C    1.168
   168   7 N    3.372 --   147 C    1.291   167 C    1.247   144 Cu   0.529
   169   1 H    0.998 --   145 C    0.972
   170   1 H    0.998 --   146 C    0.971
   171   1 H    0.998 --   150 C    0.971
   172   1 H    0.998 --   151 C    0.972
   173   1 H    0.996 --   154 C    0.963
   174   1 H    0.998 --   156 C    0.972
   175   1 H    0.998 --   157 C    0.971
   176   1 H    0.998 --   162 C    0.971
   177   1 H    0.998 --   163 C    0.972
   178   1 H    0.996 --   166 C    0.963
   179  29 Cu   2.305 --   200 N    0.529   188 N    0.529   203 N    0.529
                           194 N    0.529
   180   6 C    3.947 --   181 C    1.649   202 C    1.168   204 H    0.972
   181   6 C    3.948 --   180 C    1.649   182 C    1.176   205 H    0.971
   182   6 C    3.908 --   203 N    1.291   183 C    1.245   181 C    1.176
   183   6 C    3.929 --   184 C    1.245   182 C    1.245    90 C    1.193
   184   6 C    3.908 --   188 N    1.291   183 C    1.245   185 C    1.176
   185   6 C    3.948 --   186 C    1.649   184 C    1.176   206 H    0.971
   186   6 C    3.947 --   185 C    1.649   187 C    1.168   207 H    0.972
   187   6 C    3.920 --   189 C    1.354   188 N    1.247   186 C    1.168
   188   7 N    3.372 --   184 C    1.291   187 C    1.247   179 Cu   0.529
   189   6 C    3.925 --   187 C    1.354   190 C    1.354   208 H    0.963
   190   6 C    3.920 --   189 C    1.354   194 N    1.247   191 C    1.168
   191   6 C    3.947 --   192 C    1.649   190 C    1.168   209 H    0.972
   192   6 C    3.948 --   191 C    1.649   193 C    1.176   210 H    0.971
   193   6 C    3.908 --   194 N    1.291   195 C    1.245   192 C    1.176
   194   7 N    3.372 --   193 C    1.291   190 C    1.247   179 Cu   0.529
   195   6 C    3.929 --   193 C    1.245   196 C    1.245    91 C    1.193
   196   6 C    3.908 --   200 N    1.291   195 C    1.245   197 C    1.176
   197   6 C    3.948 --   198 C    1.649   196 C    1.176   211 H    0.971
   198   6 C    3.947 --   197 C    1.649   199 C    1.168   212 H    0.972
   199   6 C    3.920 --   201 C    1.354   200 N    1.247   198 C    1.168
   200   7 N    3.372 --   196 C    1.291   199 C    1.247   179 Cu   0.529
   201   6 C    3.925 --   199 C    1.354   202 C    1.354   213 H    0.963
   202   6 C    3.920 --   201 C    1.354   203 N    1.247   180 C    1.168
   203   7 N    3.372 --   182 C    1.291   202 C    1.247   179 Cu   0.529
   204   1 H    0.998 --   180 C    0.972
   205   1 H    0.998 --   181 C    0.971
   206   1 H    0.998 --   185 C    0.971
   207   1 H    0.998 --   186 C    0.972
   208   1 H    0.996 --   189 C    0.963
   209   1 H    0.998 --   191 C    0.972
   210   1 H    0.998 --   192 C    0.971
   211   1 H    0.998 --   197 C    0.971
   212   1 H    0.998 --   198 C    0.972
   213   1 H    0.996 --   201 C    0.963
   214  29 Cu   2.304 --   235 N    0.529   223 N    0.529   229 N    0.529
                           238 N    0.529
   215   6 C    3.947 --   216 C    1.649   237 C    1.168   239 H    0.972
   216   6 C    3.948 --   215 C    1.649   217 C    1.176   240 H    0.971
   217   6 C    3.908 --   238 N    1.291   218 C    1.245   216 C    1.176
   218   6 C    3.929 --   217 C    1.245   219 C    1.245    96 C    1.193
   219   6 C    3.908 --   223 N    1.291   218 C    1.245   220 C    1.176
   220   6 C    3.948 --   221 C    1.649   219 C    1.176   241 H    0.971
   221   6 C    3.947 --   220 C    1.649   222 C    1.168   242 H    0.972
   222   6 C    3.920 --   224 C    1.354   223 N    1.247   221 C    1.168
   223   7 N    3.372 --   219 C    1.291   222 C    1.247   214 Cu   0.529
   224   6 C    3.925 --   225 C    1.354   222 C    1.354   243 H    0.963
   225   6 C    3.920 --   224 C    1.354   229 N    1.247   226 C    1.168
   226   6 C    3.947 --   227 C    1.649   225 C    1.168   244 H    0.972
   227   6 C    3.948 --   226 C    1.649   228 C    1.176   245 H    0.971
   228   6 C    3.908 --   229 N    1.291   230 C    1.245   227 C    1.176
   229   7 N    3.372 --   228 C    1.291   225 C    1.247   214 Cu   0.529
   230   6 C    3.929 --   228 C    1.245   231 C    1.245    97 C    1.192
   231   6 C    3.908 --   235 N    1.291   230 C    1.245   232 C    1.176
   232   6 C    3.948 --   233 C    1.649   231 C    1.176   246 H    0.971
   233   6 C    3.947 --   232 C    1.649   234 C    1.168   247 H    0.972
   234   6 C    3.920 --   236 C    1.354   235 N    1.247   233 C    1.168
   235   7 N    3.372 --   231 C    1.291   234 C    1.247   214 Cu   0.529
   236   6 C    3.925 --   234 C    1.354   237 C    1.354   248 H    0.963
   237   6 C    3.920 --   236 C    1.354   238 N    1.247   215 C    1.168
   238   7 N    3.372 --   217 C    1.291   237 C    1.247   214 Cu   0.529
   239   1 H    0.998 --   215 C    0.972
   240   1 H    0.998 --   216 C    0.971
   241   1 H    0.998 --   220 C    0.971
   242   1 H    0.998 --   221 C    0.972
   243   1 H    0.996 --   224 C    0.963
   244   1 H    0.998 --   226 C    0.972
   245   1 H    0.998 --   227 C    0.971
   246   1 H    0.998 --   232 C    0.971
   247   1 H    0.998 --   233 C    0.972
   248   1 H    0.996 --   236 C    0.963
   249  29 Cu   2.303 --   270 N    0.528   258 N    0.528   264 N    0.528
                           273 N    0.528
   250   6 C    3.947 --   251 C    1.649   272 C    1.168   274 H    0.972
   251   6 C    3.948 --   250 C    1.649   252 C    1.176   275 H    0.971
   252   6 C    3.908 --   273 N    1.291   253 C    1.245   251 C    1.176
   253   6 C    3.930 --   254 C    1.245   252 C    1.245   102 C    1.192
   254   6 C    3.908 --   258 N    1.291   253 C    1.245   255 C    1.176
   255   6 C    3.948 --   256 C    1.649   254 C    1.176   276 H    0.971
   256   6 C    3.947 --   255 C    1.649   257 C    1.168   277 H    0.972
   257   6 C    3.920 --   259 C    1.354   258 N    1.248   256 C    1.168
   258   7 N    3.372 --   254 C    1.291   257 C    1.248   249 Cu   0.528
   259   6 C    3.926 --   260 C    1.354   257 C    1.354   278 H    0.963
   260   6 C    3.920 --   259 C    1.354   264 N    1.248   261 C    1.168
   261   6 C    3.947 --   262 C    1.649   260 C    1.168   279 H    0.972
   262   6 C    3.948 --   261 C    1.649   263 C    1.176   280 H    0.971
   263   6 C    3.908 --   264 N    1.291   265 C    1.246   262 C    1.176
   264   7 N    3.372 --   263 C    1.291   260 C    1.248   249 Cu   0.528
   265   6 C    3.930 --   266 C    1.246   263 C    1.246   103 C    1.191
   266   6 C    3.909 --   270 N    1.291   265 C    1.246   267 C    1.176
   267   6 C    3.948 --   268 C    1.649   266 C    1.176   281 H    0.971
   268   6 C    3.947 --   267 C    1.649   269 C    1.168   282 H    0.972
   269   6 C    3.920 --   271 C    1.354   270 N    1.248   268 C    1.168
   270   7 N    3.372 --   266 C    1.291   269 C    1.248   249 Cu   0.528
   271   6 C    3.926 --   269 C    1.354   272 C    1.354   283 H    0.963
   272   6 C    3.920 --   271 C    1.354   273 N    1.248   250 C    1.168
   273   7 N    3.372 --   252 C    1.291   272 C    1.248   249 Cu   0.528
   274   1 H    0.998 --   250 C    0.972
   275   1 H    0.998 --   251 C    0.971
   276   1 H    0.998 --   255 C    0.971
   277   1 H    0.998 --   256 C    0.972
   278   1 H    0.996 --   259 C    0.963
   279   1 H    0.998 --   261 C    0.972
   280   1 H    0.998 --   262 C    0.971
   281   1 H    0.998 --   267 C    0.971
   282   1 H    0.998 --   268 C    0.972
   283   1 H    0.996 --   271 C    0.963
 ---------------------------------------------------------------------------

Topologies differ in total number of bonds
Writing topology from bond orders to xtbtopo.mol

molecular dipole:
                 x           y           z       tot (Debye)
 q only:        0.002      -0.002      -0.003
   full:        0.002      -0.002      -0.005       0.016
molecular quadrupole (traceless):
                xx          xy          yy          xz          yz          zz
 q only:      305.977       0.484    -106.796      -0.531      -5.301    -199.181
  q+dip:      424.786       0.793    -100.543      -0.996     -13.048    -324.242
   full:      354.126       0.772    -112.109      -0.981      -7.583    -242.017


           -------------------------------------------------
          | TOTAL ENERGY             -522.285421866187 Eh   |
          | GRADIENT NORM               0.000552932276 Eh/α |
          | HOMO-LUMO GAP               0.000009437104 eV   |
           -------------------------------------------------

------------------------------------------------------------------------
 * finished run on 2021/11/21 at 21:22:27.981     
------------------------------------------------------------------------
 total:
 * wall-time:     0 d,  0 h,  0 min, 16.329 sec
 *  cpu-time:     0 d,  0 h,  0 min, 16.329 sec
 * ratio c/w:     1.000 speedup
 SCF:
 * wall-time:     0 d,  0 h,  0 min, 16.159 sec
 *  cpu-time:     0 d,  0 h,  0 min, 16.159 sec
 * ratio c/w:     1.000 speedup

