      -----------------------------------------------------------      
     |                   =====================                   |     
     |                           x T B                           |     
     |                   =====================                   |     
     |                         S. Grimme                         |     
     |          Mulliken Center for Theoretical Chemistry        |     
     |                    University of Bonn                     |     
      -----------------------------------------------------------      

   * xtb version 6.4.1 (bd6e46d) compiled by 'conda@4901f00b25ba' on 2021-06-10

   xtb is free software: you can redistribute it and/or modify it under
   the terms of the GNU Lesser General Public License as published by
   the Free Software Foundation, either version 3 of the License, or
   (at your option) any later version.
   
   xtb is distributed in the hope that it will be useful,
   but WITHOUT ANY WARRANTY; without even the implied warranty of
   MERCHANTABILITY or FITNESS FOR A PARTICULAR PURPOSE.  See the
   GNU Lesser General Public License for more details.
   
   Cite this work as:
   * C. Bannwarth, E. Caldeweyher, S. Ehlert, A. Hansen, P. Pracht,
     J. Seibert, S. Spicher, S. Grimme, WIREs Comput. Mol. Sci., 2020, 11,
     e01493. DOI: 10.1002/wcms.1493
   
   for GFN2-xTB:
   * C. Bannwarth, S. Ehlert and S. Grimme., J. Chem. Theory Comput., 2019,
     15, 1652-1671. DOI: 10.1021/acs.jctc.8b01176
   for GFN1-xTB:
   * S. Grimme, C. Bannwarth, P. Shushkov, J. Chem. Theory Comput., 2017,
     13, 1989-2009. DOI: 10.1021/acs.jctc.7b00118
   for GFN0-xTB:
   * P. Pracht, E. Caldeweyher, S. Ehlert, S. Grimme, ChemRxiv, 2019, preprint.
     DOI: 10.26434/chemrxiv.8326202.v1
   for GFN-FF:
   * S. Spicher and S. Grimme, Angew. Chem. Int. Ed., 2020, 59, 15665-15673.
     DOI: 10.1002/anie.202004239
   
   for DFT-D4:
   * E. Caldeweyher, C. Bannwarth and S. Grimme, J. Chem. Phys., 2017,
     147, 034112. DOI: 10.1063/1.4993215
   * E. Caldeweyher, S. Ehlert, A. Hansen, H. Neugebauer, S. Spicher,
     C. Bannwarth and S. Grimme, J. Chem. Phys., 2019, 150, 154122.
     DOI: 10.1063/1.5090222
   * E. Caldeweyher, J.-M. Mewes, S. Ehlert and S. Grimme, Phys. Chem. Chem. Phys.
     2020, 22, 8499-8512. DOI: 10.1039/D0CP00502A
   
   for sTDA-xTB:
   * S. Grimme and C. Bannwarth, J. Chem. Phys., 2016, 145, 054103.
     DOI: 10.1063/1.4959605
   
   in the mass-spec context:
   * V. Asgeirsson, C. Bauer and S. Grimme, Chem. Sci., 2017, 8, 4879.
     DOI: 10.1039/c7sc00601b
   * J. Koopman and S. Grimme, ACS Omega 2019, 4, 12, 15120-15133.
     DOI: 10.1021/acsomega.9b02011
   
   for metadynamics refer to:
   * S. Grimme, J. Chem. Theory Comput., 2019, 155, 2847-2862
     DOI: 10.1021/acs.jctc.9b00143
   
   for SPH calculations refer to:
   * S. Spicher and S. Grimme, J. Chem. Theory Comput., 2021, 17, 1701-1714
     DOI: 10.1021/acs.jctc.0c01306
   
   with help from (in alphabetical order)
   P. Atkinson, C. Bannwarth, F. Bohle, G. Brandenburg, E. Caldeweyher
   M. Checinski, S. Dohm, S. Ehlert, S. Ehrlich, I. Gerasimov, J. Koopman
   C. Lavigne, S. Lehtola, F. März, M. Müller, F. Musil, H. Neugebauer
   J. Pisarek, C. Plett, P. Pracht, J. Seibert, P. Shushkov, S. Spicher
   M. Stahn, M. Steiner, T. Strunk, J. Stückrath, T. Rose, and J. Unsleber
   
 * started run on 2021/11/21 at 21:10:20.314     

           -------------------------------------------------
          |                Calculation Setup                |
           -------------------------------------------------

          program call               : /home/jeff/miniconda3/bin/xtb /home/jeff/chem/final-year-proejct/Zn+2_4_4_outenergy/input_structure.xyz --gfn 2 --parallel 1 --etemp 300 --chrg 0 --uhf 0 -I det_control.in
          coordinate file            : /home/jeff/chem/final-year-proejct/Zn+2_4_4_outenergy/input_structure.xyz
          omp threads                :                     1
          number of atoms            :                   154
          number of electrons        :                   498
          charge                     :                     0
          spin                       :                   0.0
          first test random number   :      0.90589174900549

   ID    Z sym.   atoms
    1   30 Zn     1, 37, 85, 120
    2    6 C      2-9, 11-15, 17-21, 23, 24, 38-45, 47-51, 53-57, 59, 60,
                  73-84, 86-93, 95-99, 101-105, 107, 108, 121-128, 130-134,
                  136-140, 142, 143
    3    7 N      10, 16, 22, 25, 46, 52, 58, 61, 94, 100, 106, 109, 129,
                  135, 141, 144
    4    1 H      26-36, 62-72, 110-119, 145-154

           -------------------------------------------------
          |                 G F N 2 - x T B                 |
           -------------------------------------------------

        Reference                      10.1021/acs.jctc.8b01176
      * Hamiltonian:
        H0-scaling (s, p, d)           1.850000    2.230000    2.230000
        zeta-weighting                 0.500000
      * Dispersion:
        s8                             2.700000
        a1                             0.520000
        a2                             5.000000
        s9                             5.000000
      * Repulsion:
        kExp                           1.500000    1.000000
        rExp                           1.000000
      * Coulomb:
        alpha                          2.000000
        third order                    shell-resolved
        anisotropic                    true
        a3                             3.000000
        a5                             4.000000
        cn-shift                       1.200000
        cn-exp                         4.000000
        max-rad                        5.000000


          ...................................................
          :                      SETUP                      :
          :.................................................:
          :  # basis functions                 490          :
          :  # atomic orbitals                 490          :
          :  # shells                          266          :
          :  # electrons                       498          :
          :  max. iterations                   250          :
          :  Hamiltonian                  GFN2-xTB          :
          :  restarted?                      false          :
          :  GBSA solvation                  false          :
          :  PC potential                    false          :
          :  electronic temp.          300.0000000     K    :
          :  accuracy                    1.0000000          :
          :  -> integral cutoff          0.2500000E+02      :
          :  -> integral neglect         0.1000000E-07      :
          :  -> SCF convergence          0.1000000E-05 Eh   :
          :  -> wf. convergence          0.1000000E-03 e    :
          :  Broyden damping             0.4000000          :
          ...................................................

 iter      E             dE          RMSdq      gap      omega  full diag
   1   -271.4651539 -0.271465E+03  0.692E+00    0.94       0.0  T
   2   -272.0100332 -0.544879E+00  0.362E+00    0.89       1.0  T
   3   -271.8851182  0.124915E+00  0.248E+00    1.00       1.0  T
   4   -272.4483084 -0.563190E+00  0.406E-01    0.92       1.0  T
   5   -272.4516703 -0.336188E-02  0.274E-01    0.95       1.0  T
   6   -272.4538463 -0.217604E-02  0.176E-01    0.95       1.0  T
   7   -272.4567335 -0.288717E-02  0.882E-02    0.94       1.0  T
   8   -272.4578837 -0.115024E-02  0.348E-02    0.94       1.0  T
   9   -272.4580579 -0.174108E-03  0.147E-02    0.94       1.0  T
  10   -272.4580755 -0.176624E-04  0.657E-03    0.94       1.2  T
  11   -272.4580797 -0.422628E-05  0.252E-03    0.94       3.2  T
  12   -272.4580804 -0.612230E-06  0.114E-03    0.94       7.0  T
  13   -272.4580804 -0.274453E-07  0.586E-04    0.94      13.8  T
  14   -272.4580804 -0.481953E-07  0.182E-04    0.94      44.2  T

   *** convergence criteria satisfied after 14 iterations ***

         #    Occupation            Energy/Eh            Energy/eV
      -------------------------------------------------------------
         1        2.0000           -0.6680069             -18.1774
       ...           ...                  ...                  ...
       243        2.0000           -0.3703628             -10.0781
       244        2.0000           -0.3703599             -10.0780
       245        2.0000           -0.3691979             -10.0464
       246        2.0000           -0.3691826             -10.0460
       247        2.0000           -0.3642962              -9.9130
       248        2.0000           -0.3563023              -9.6955
       249        2.0000           -0.3495815              -9.5126 (HOMO)
       250                         -0.3150390              -8.5726 (LUMO)
       251                         -0.3074914              -8.3673
       252                         -0.2995859              -8.1521
       253                         -0.2995850              -8.1521
       254                         -0.2991298              -8.1397
       ...                                ...                  ...
       490                          1.6323836              44.4194
      -------------------------------------------------------------
                  HL-Gap            0.0345425 Eh            0.9399 eV
             Fermi-level           -0.3323100 Eh           -9.0426 eV

 SCC (total)                   0 d,  0 h,  0 min,  1.114 sec
 SCC setup                      ...        0 min,  0.005 sec (  0.435%)
 Dispersion                     ...        0 min,  0.009 sec (  0.837%)
 classical contributions        ...        0 min,  0.001 sec (  0.104%)
 integral evaluation            ...        0 min,  0.077 sec (  6.897%)
 iterations                     ...        0 min,  0.788 sec ( 70.726%)
 molecular gradient             ...        0 min,  0.227 sec ( 20.409%)
 printout                       ...        0 min,  0.007 sec (  0.591%)

         :::::::::::::::::::::::::::::::::::::::::::::::::::::
         ::                     SUMMARY                     ::
         :::::::::::::::::::::::::::::::::::::::::::::::::::::
         :: total energy            -267.477274832388 Eh    ::
         :: gradient norm              0.000390472484 Eh/a0 ::
         :: HOMO-LUMO gap              0.939949435294 eV    ::
         ::.................................................::
         :: SCC energy              -272.458080430649 Eh    ::
         :: -> isotropic ES            0.260228398846 Eh    ::
         :: -> anisotropic ES          0.035991184967 Eh    ::
         :: -> anisotropic XC          0.152004402429 Eh    ::
         :: -> dispersion             -0.246632079143 Eh    ::
         :: repulsion energy           4.984738499370 Eh    ::
         :: add. restraining           0.000000000000 Eh    ::
         :: total charge               0.000000000013 e     ::
         :::::::::::::::::::::::::::::::::::::::::::::::::::::

           -------------------------------------------------
          |                Property Printout                |
           -------------------------------------------------

    * Orbital Energies and Occupations

         #    Occupation            Energy/Eh            Energy/eV
      -------------------------------------------------------------
         1        2.0000           -0.6680069             -18.1774
       ...           ...                  ...                  ...
       237        2.0000           -0.3890879             -10.5876
       238        2.0000           -0.3879290             -10.5561
       239        2.0000           -0.3875858             -10.5467
       240        2.0000           -0.3862135             -10.5094
       241        2.0000           -0.3861989             -10.5090
       242        2.0000           -0.3709112             -10.0930
       243        2.0000           -0.3703628             -10.0781
       244        2.0000           -0.3703599             -10.0780
       245        2.0000           -0.3691979             -10.0464
       246        2.0000           -0.3691826             -10.0460
       247        2.0000           -0.3642962              -9.9130
       248        2.0000           -0.3563023              -9.6955
       249        2.0000           -0.3495815              -9.5126 (HOMO)
       250                         -0.3150390              -8.5726 (LUMO)
       251                         -0.3074914              -8.3673
       252                         -0.2995859              -8.1521
       253                         -0.2995850              -8.1521
       254                         -0.2991298              -8.1397
       255                         -0.2985117              -8.1229
       256                         -0.2984970              -8.1225
       257                         -0.2930850              -7.9752
       258                         -0.2715756              -7.3899
       259                         -0.2641007              -7.1865
       260                         -0.2583416              -7.0298
       ...                                ...                  ...
       490                          1.6323836              44.4194
      -------------------------------------------------------------
                  HL-Gap            0.0345425 Eh            0.9399 eV
             Fermi-level           -0.3323100 Eh           -9.0426 eV

     #   Z          covCN         q      C6AA      α(0)
     1  30 Zn       3.042     0.245   122.298    21.603
     2   6 C        3.020    -0.052    29.266     8.874
     3   6 C        3.018    -0.050    29.228     8.868
     4   6 C        3.166     0.077    25.942     8.323
     5   6 C        2.953     0.017    27.630     8.622
     6   6 C        3.166     0.077    25.942     8.323
     7   6 C        3.018    -0.050    29.227     8.868
     8   6 C        3.020    -0.052    29.266     8.874
     9   6 C        3.149     0.076    26.051     8.349
    10   7 N        2.632    -0.177    24.836     7.401
    11   6 C        2.901    -0.050    29.234     8.865
    12   6 C        3.145     0.077    26.038     8.348
    13   6 C        3.017    -0.051    29.244     8.871
    14   6 C        3.018    -0.051    29.248     8.871
    15   6 C        3.145     0.077    26.028     8.347
    16   7 N        2.635    -0.175    24.791     7.395
    17   6 C        2.901    -0.052    29.279     8.872
    18   6 C        3.145     0.077    26.028     8.347
    19   6 C        3.018    -0.051    29.248     8.871
    20   6 C        3.017    -0.051    29.244     8.871
    21   6 C        3.145     0.077    26.038     8.348
    22   7 N        2.635    -0.175    24.791     7.395
    23   6 C        2.901    -0.050    29.234     8.865
    24   6 C        3.149     0.076    26.051     8.349
    25   7 N        2.632    -0.177    24.837     7.402
    26   1 H        0.926     0.034     2.534     2.490
    27   1 H        0.926     0.035     2.511     2.478
    28   1 H        0.926     0.035     2.510     2.477
    29   1 H        0.926     0.034     2.534     2.490
    30   1 H        0.926     0.049     2.330     2.387
    31   1 H        0.926     0.034     2.526     2.486
    32   1 H        0.926     0.034     2.527     2.486
    33   1 H        0.926     0.049     2.338     2.391
    34   1 H        0.926     0.034     2.527     2.486
    35   1 H        0.926     0.034     2.526     2.485
    36   1 H        0.926     0.049     2.330     2.387
    37  30 Zn       3.042     0.245   122.298    21.603
    38   6 C        3.020    -0.052    29.266     8.874
    39   6 C        3.018    -0.050    29.228     8.868
    40   6 C        3.166     0.077    25.942     8.323
    41   6 C        2.953     0.017    27.630     8.622
    42   6 C        3.166     0.077    25.943     8.323
    43   6 C        3.018    -0.050    29.228     8.868
    44   6 C        3.020    -0.052    29.266     8.874
    45   6 C        3.149     0.076    26.051     8.349
    46   7 N        2.632    -0.177    24.837     7.402
    47   6 C        2.901    -0.050    29.235     8.865
    48   6 C        3.145     0.077    26.038     8.348
    49   6 C        3.017    -0.051    29.244     8.871
    50   6 C        3.018    -0.051    29.248     8.871
    51   6 C        3.145     0.077    26.028     8.347
    52   7 N        2.635    -0.175    24.791     7.395
    53   6 C        2.901    -0.052    29.279     8.872
    54   6 C        3.145     0.077    26.028     8.347
    55   6 C        3.018    -0.051    29.248     8.871
    56   6 C        3.017    -0.051    29.244     8.871
    57   6 C        3.145     0.077    26.038     8.348
    58   7 N        2.635    -0.175    24.792     7.395
    59   6 C        2.901    -0.050    29.235     8.865
    60   6 C        3.149     0.076    26.051     8.349
    61   7 N        2.632    -0.177    24.836     7.402
    62   1 H        0.926     0.034     2.534     2.489
    63   1 H        0.926     0.035     2.510     2.477
    64   1 H        0.926     0.035     2.509     2.477
    65   1 H        0.926     0.034     2.534     2.489
    66   1 H        0.926     0.049     2.330     2.387
    67   1 H        0.926     0.034     2.526     2.486
    68   1 H        0.926     0.034     2.527     2.486
    69   1 H        0.926     0.049     2.338     2.391
    70   1 H        0.926     0.034     2.528     2.486
    71   1 H        0.926     0.034     2.526     2.486
    72   1 H        0.926     0.049     2.330     2.387
    73   6 C        1.996    -0.020    31.584     9.076
    74   6 C        1.963    -0.010    31.336     9.040
    75   6 C        1.963    -0.009    31.319     9.038
    76   6 C        1.996    -0.021    31.603     9.079
    77   6 C        1.996    -0.021    31.591     9.077
    78   6 C        1.963    -0.010    31.325     9.038
    79   6 C        1.963    -0.010    31.325     9.038
    80   6 C        1.996    -0.021    31.592     9.077
    81   6 C        1.996    -0.021    31.602     9.079
    82   6 C        1.963    -0.009    31.318     9.037
    83   6 C        1.963    -0.010    31.335     9.040
    84   6 C        1.996    -0.020    31.583     9.076
    85  30 Zn       3.038     0.246   122.275    21.601
    86   6 C        3.021    -0.052    29.262     8.873
    87   6 C        3.019    -0.050    29.228     8.868
    88   6 C        3.167     0.077    25.932     8.321
    89   6 C        2.953     0.017    27.623     8.620
    90   6 C        3.167     0.077    25.933     8.321
    91   6 C        3.019    -0.050    29.227     8.868
    92   6 C        3.021    -0.052    29.262     8.873
    93   6 C        3.151     0.075    26.056     8.349
    94   7 N        2.632    -0.177    24.839     7.402
    95   6 C        2.901    -0.048    29.182     8.857
    96   6 C        3.151     0.075    26.056     8.349
    97   6 C        3.021    -0.052    29.261     8.873
    98   6 C        3.019    -0.050    29.229     8.868
    99   6 C        3.167     0.078    25.931     8.321
   100   7 N        2.632    -0.177    24.839     7.402
   101   6 C        2.953     0.017    27.629     8.621
   102   6 C        3.167     0.078    25.931     8.321
   103   6 C        3.019    -0.050    29.229     8.868
   104   6 C        3.021    -0.052    29.261     8.873
   105   6 C        3.151     0.075    26.056     8.349
   106   7 N        2.632    -0.177    24.839     7.402
   107   6 C        2.901    -0.048    29.181     8.857
   108   6 C        3.151     0.075    26.055     8.349
   109   7 N        2.632    -0.177    24.837     7.402
   110   1 H        0.926     0.034     2.533     2.489
   111   1 H        0.926     0.036     2.509     2.477
   112   1 H        0.926     0.036     2.509     2.477
   113   1 H        0.926     0.034     2.533     2.489
   114   1 H        0.925     0.050     2.321     2.382
   115   1 H        0.926     0.034     2.533     2.489
   116   1 H        0.926     0.035     2.510     2.478
   117   1 H        0.926     0.035     2.510     2.478
   118   1 H        0.926     0.034     2.533     2.489
   119   1 H        0.925     0.050     2.321     2.382
   120  30 Zn       3.038     0.246   122.275    21.601
   121   6 C        3.021    -0.052    29.261     8.873
   122   6 C        3.019    -0.050    29.229     8.868
   123   6 C        3.167     0.078    25.931     8.321
   124   6 C        2.953     0.017    27.629     8.621
   125   6 C        3.167     0.078    25.931     8.321
   126   6 C        3.019    -0.050    29.229     8.868
   127   6 C        3.021    -0.052    29.261     8.873
   128   6 C        3.151     0.075    26.056     8.349
   129   7 N        2.632    -0.177    24.839     7.402
   130   6 C        2.901    -0.048    29.182     8.857
   131   6 C        3.151     0.075    26.055     8.349
   132   6 C        3.021    -0.052    29.262     8.873
   133   6 C        3.019    -0.050    29.228     8.868
   134   6 C        3.167     0.077    25.933     8.321
   135   7 N        2.632    -0.177    24.838     7.402
   136   6 C        2.953     0.017    27.623     8.620
   137   6 C        3.167     0.077    25.934     8.321
   138   6 C        3.018    -0.050    29.227     8.868
   139   6 C        3.021    -0.052    29.262     8.873
   140   6 C        3.151     0.075    26.055     8.349
   141   7 N        2.632    -0.177    24.839     7.402
   142   6 C        2.901    -0.048    29.182     8.857
   143   6 C        3.151     0.075    26.056     8.349
   144   7 N        2.632    -0.177    24.839     7.402
   145   1 H        0.926     0.034     2.533     2.489
   146   1 H        0.926     0.035     2.510     2.478
   147   1 H        0.926     0.035     2.510     2.477
   148   1 H        0.926     0.034     2.533     2.489
   149   1 H        0.925     0.050     2.321     2.382
   150   1 H        0.926     0.034     2.533     2.489
   151   1 H        0.926     0.036     2.508     2.477
   152   1 H        0.926     0.036     2.508     2.477
   153   1 H        0.926     0.034     2.533     2.489
   154   1 H        0.925     0.050     2.321     2.383

 Mol. C6AA /au·bohr⁶  :     459661.903943
 Mol. C8AA /au·bohr⁸  :   13082195.465664
 Mol. α(0) /au        :       1107.899646


Wiberg/Mayer (AO) data.
largest (>0.10) Wiberg bond orders for each atom

 ---------------------------------------------------------------------------
     #   Z sym  total        # sym  WBO       # sym  WBO       # sym  WBO
 ---------------------------------------------------------------------------
     1  30 Zn   2.081 --    22 N    0.491    16 N    0.491    10 N    0.489
                            25 N    0.489
     2   6 C    3.953 --     3 C    1.650    24 C    1.171    26 H    0.972
     3   6 C    3.957 --     2 C    1.650     4 C    1.179    27 H    0.971
     4   6 C    3.912 --    25 N    1.286     5 C    1.252     3 C    1.179
     5   6 C    3.941 --     6 C    1.252     4 C    1.252    73 C    1.185
     6   6 C    3.912 --    10 N    1.286     5 C    1.252     7 C    1.179
     7   6 C    3.957 --     8 C    1.651     6 C    1.179    28 H    0.971
     8   6 C    3.953 --     7 C    1.651     9 C    1.171    29 H    0.972
     9   6 C    3.924 --    11 C    1.358    10 N    1.247     8 C    1.171
    10   7 N    3.467 --     6 C    1.286     9 C    1.247     1 Zn   0.489
    11   6 C    3.931 --     9 C    1.358    12 C    1.354    30 H    0.964
    12   6 C    3.929 --    11 C    1.354    16 N    1.261    13 C    1.163
    13   6 C    3.957 --    14 C    1.666    12 C    1.163    31 H    0.972
    14   6 C    3.955 --    13 C    1.666    15 C    1.162    32 H    0.972
    15   6 C    3.932 --    17 C    1.354    16 N    1.263    14 C    1.162
    16   7 N    3.464 --    15 C    1.263    12 C    1.261     1 Zn   0.491
    17   6 C    3.926 --    18 C    1.354    15 C    1.354    33 H    0.964
    18   6 C    3.932 --    17 C    1.354    22 N    1.263    19 C    1.162
    19   6 C    3.955 --    20 C    1.666    18 C    1.162    34 H    0.972
    20   6 C    3.957 --    19 C    1.666    21 C    1.163    35 H    0.972
    21   6 C    3.929 --    23 C    1.354    22 N    1.261    20 C    1.163
    22   7 N    3.464 --    18 C    1.263    21 C    1.261     1 Zn   0.491
    23   6 C    3.931 --    24 C    1.358    21 C    1.354    36 H    0.964
    24   6 C    3.924 --    23 C    1.358    25 N    1.247     2 C    1.171
    25   7 N    3.467 --     4 C    1.286    24 C    1.247     1 Zn   0.489
    26   1 H    0.998 --     2 C    0.972
    27   1 H    0.998 --     3 C    0.971
    28   1 H    0.998 --     7 C    0.971
    29   1 H    0.998 --     8 C    0.972
    30   1 H    0.996 --    11 C    0.964
    31   1 H    0.998 --    13 C    0.972
    32   1 H    0.998 --    14 C    0.972
    33   1 H    0.996 --    17 C    0.964
    34   1 H    0.998 --    19 C    0.972
    35   1 H    0.998 --    20 C    0.972
    36   1 H    0.996 --    23 C    0.964
    37  30 Zn   2.081 --    52 N    0.491    58 N    0.491    61 N    0.489
                            46 N    0.489
    38   6 C    3.953 --    39 C    1.651    60 C    1.171    62 H    0.972
    39   6 C    3.957 --    38 C    1.651    40 C    1.179    63 H    0.971
    40   6 C    3.912 --    61 N    1.286    41 C    1.252    39 C    1.179
    41   6 C    3.941 --    42 C    1.252    40 C    1.252    84 C    1.184
    42   6 C    3.912 --    46 N    1.286    41 C    1.252    43 C    1.179
    43   6 C    3.957 --    44 C    1.651    42 C    1.179    64 H    0.971
    44   6 C    3.953 --    43 C    1.651    45 C    1.171    65 H    0.972
    45   6 C    3.924 --    47 C    1.358    46 N    1.247    44 C    1.171
    46   7 N    3.467 --    42 C    1.286    45 C    1.247    37 Zn   0.489
    47   6 C    3.931 --    45 C    1.358    48 C    1.354    66 H    0.964
    48   6 C    3.929 --    47 C    1.354    52 N    1.261    49 C    1.163
    49   6 C    3.957 --    50 C    1.666    48 C    1.163    67 H    0.972
    50   6 C    3.955 --    49 C    1.666    51 C    1.162    68 H    0.972
    51   6 C    3.932 --    53 C    1.354    52 N    1.263    50 C    1.162
    52   7 N    3.464 --    51 C    1.263    48 C    1.261    37 Zn   0.491
    53   6 C    3.926 --    54 C    1.354    51 C    1.354    69 H    0.964
    54   6 C    3.932 --    53 C    1.354    58 N    1.263    55 C    1.162
    55   6 C    3.955 --    56 C    1.666    54 C    1.162    70 H    0.972
    56   6 C    3.957 --    55 C    1.666    57 C    1.163    71 H    0.972
    57   6 C    3.929 --    59 C    1.354    58 N    1.261    56 C    1.163
    58   7 N    3.464 --    54 C    1.263    57 C    1.261    37 Zn   0.491
    59   6 C    3.931 --    60 C    1.358    57 C    1.354    72 H    0.964
    60   6 C    3.924 --    59 C    1.358    61 N    1.247    38 C    1.171
    61   7 N    3.467 --    40 C    1.286    60 C    1.247    37 Zn   0.489
    62   1 H    0.998 --    38 C    0.972
    63   1 H    0.998 --    39 C    0.971
    64   1 H    0.998 --    43 C    0.971
    65   1 H    0.998 --    44 C    0.972
    66   1 H    0.996 --    47 C    0.964
    67   1 H    0.998 --    49 C    0.972
    68   1 H    0.998 --    50 C    0.972
    69   1 H    0.996 --    53 C    0.964
    70   1 H    0.998 --    55 C    0.972
    71   1 H    0.998 --    56 C    0.972
    72   1 H    0.996 --    59 C    0.964
    73   6 C    3.918 --    74 C    2.470     5 C    1.185    76 C    0.203
    74   6 C    3.928 --    73 C    2.470    75 C    1.305
    75   6 C    3.925 --    76 C    2.468    74 C    1.305
    76   6 C    3.919 --    75 C    2.468    89 C    1.187    73 C    0.203
    77   6 C    3.918 --    78 C    2.466   101 C    1.188    80 C    0.203
    78   6 C    3.925 --    77 C    2.466    79 C    1.307
    79   6 C    3.925 --    80 C    2.466    78 C    1.307
    80   6 C    3.918 --    79 C    2.466   124 C    1.188    77 C    0.203
    81   6 C    3.919 --    82 C    2.469   136 C    1.186    84 C    0.203
    82   6 C    3.925 --    81 C    2.469    83 C    1.304
    83   6 C    3.928 --    84 C    2.471    82 C    1.304
    84   6 C    3.917 --    83 C    2.471    41 C    1.184    81 C    0.203
    85  30 Zn   2.076 --   100 N    0.489   109 N    0.489    94 N    0.489
                           106 N    0.489
    86   6 C    3.954 --    87 C    1.648   108 C    1.173   110 H    0.972
    87   6 C    3.955 --    86 C    1.648    88 C    1.181   111 H    0.971
    88   6 C    3.912 --   109 N    1.287    89 C    1.249    87 C    1.181
    89   6 C    3.929 --    90 C    1.250    88 C    1.249    76 C    1.187
    90   6 C    3.912 --    94 N    1.287    89 C    1.250    91 C    1.181
    91   6 C    3.955 --    92 C    1.648    90 C    1.181   112 H    0.971
    92   6 C    3.954 --    91 C    1.648    93 C    1.173   113 H    0.972
    93   6 C    3.923 --    95 C    1.356    94 N    1.245    92 C    1.173
    94   7 N    3.460 --    90 C    1.287    93 C    1.245    85 Zn   0.489
    95   6 C    3.925 --    96 C    1.357    93 C    1.356   114 H    0.964
    96   6 C    3.923 --    95 C    1.357   100 N    1.244    97 C    1.173
    97   6 C    3.954 --    98 C    1.648    96 C    1.173   115 H    0.972
    98   6 C    3.955 --    97 C    1.648    99 C    1.181   116 H    0.971
    99   6 C    3.912 --   100 N    1.288   101 C    1.249    98 C    1.181
   100   7 N    3.460 --    99 C    1.288    96 C    1.244    85 Zn   0.489
   101   6 C    3.929 --    99 C    1.249   102 C    1.249    77 C    1.188
   102   6 C    3.912 --   106 N    1.288   101 C    1.249   103 C    1.181
   103   6 C    3.955 --   104 C    1.648   102 C    1.181   117 H    0.971
   104   6 C    3.954 --   103 C    1.648   105 C    1.173   118 H    0.972
   105   6 C    3.923 --   107 C    1.357   106 N    1.244   104 C    1.173
   106   7 N    3.460 --   102 C    1.288   105 C    1.244    85 Zn   0.489
   107   6 C    3.925 --   105 C    1.357   108 C    1.356   119 H    0.964
   108   6 C    3.923 --   107 C    1.356   109 N    1.245    86 C    1.173
   109   7 N    3.460 --    88 C    1.287   108 C    1.245    85 Zn   0.489
   110   1 H    0.998 --    86 C    0.972
   111   1 H    0.998 --    87 C    0.971
   112   1 H    0.998 --    91 C    0.971
   113   1 H    0.998 --    92 C    0.972
   114   1 H    0.996 --    95 C    0.964
   115   1 H    0.998 --    97 C    0.972
   116   1 H    0.998 --    98 C    0.971
   117   1 H    0.998 --   103 C    0.971
   118   1 H    0.998 --   104 C    0.972
   119   1 H    0.996 --   107 C    0.964
   120  30 Zn   2.076 --   144 N    0.489   129 N    0.489   141 N    0.489
                           135 N    0.489
   121   6 C    3.953 --   122 C    1.648   143 C    1.173   145 H    0.972
   122   6 C    3.955 --   121 C    1.648   123 C    1.181   146 H    0.971
   123   6 C    3.912 --   144 N    1.288   124 C    1.249   122 C    1.181
   124   6 C    3.929 --   123 C    1.249   125 C    1.249    80 C    1.188
   125   6 C    3.912 --   129 N    1.288   124 C    1.249   126 C    1.181
   126   6 C    3.955 --   127 C    1.648   125 C    1.181   147 H    0.971
   127   6 C    3.954 --   126 C    1.648   128 C    1.173   148 H    0.972
   128   6 C    3.923 --   130 C    1.357   129 N    1.244   127 C    1.173
   129   7 N    3.460 --   125 C    1.288   128 C    1.244   120 Zn   0.489
   130   6 C    3.926 --   128 C    1.357   131 C    1.356   149 H    0.964
   131   6 C    3.923 --   130 C    1.356   135 N    1.245   132 C    1.173
   132   6 C    3.954 --   133 C    1.648   131 C    1.173   150 H    0.972
   133   6 C    3.955 --   132 C    1.648   134 C    1.181   151 H    0.971
   134   6 C    3.912 --   135 N    1.287   136 C    1.250   133 C    1.181
   135   7 N    3.460 --   134 C    1.287   131 C    1.245   120 Zn   0.489
   136   6 C    3.929 --   137 C    1.250   134 C    1.250    81 C    1.186
   137   6 C    3.912 --   141 N    1.287   136 C    1.250   138 C    1.181
   138   6 C    3.955 --   139 C    1.648   137 C    1.181   152 H    0.971
   139   6 C    3.954 --   138 C    1.648   140 C    1.173   153 H    0.972
   140   6 C    3.923 --   142 C    1.356   141 N    1.245   139 C    1.173
   141   7 N    3.460 --   137 C    1.287   140 C    1.245   120 Zn   0.489
   142   6 C    3.925 --   143 C    1.357   140 C    1.356   154 H    0.964
   143   6 C    3.923 --   142 C    1.357   144 N    1.244   121 C    1.173
   144   7 N    3.460 --   123 C    1.288   143 C    1.244   120 Zn   0.489
   145   1 H    0.998 --   121 C    0.972
   146   1 H    0.998 --   122 C    0.971
   147   1 H    0.998 --   126 C    0.971
   148   1 H    0.998 --   127 C    0.972
   149   1 H    0.996 --   130 C    0.964
   150   1 H    0.998 --   132 C    0.972
   151   1 H    0.998 --   133 C    0.971
   152   1 H    0.998 --   138 C    0.971
   153   1 H    0.998 --   139 C    0.972
   154   1 H    0.996 --   142 C    0.964
 ---------------------------------------------------------------------------

Topologies differ in total number of bonds
Writing topology from bond orders to xtbtopo.mol

molecular dipole:
                 x           y           z       tot (Debye)
 q only:       -0.000      -0.001      -0.003
   full:       -0.000      -0.001      -0.006       0.016
molecular quadrupole (traceless):
                xx          xy          yy          xz          yz          zz
 q only:       48.021       0.222      -0.725      -0.331      -0.649     -47.296
  q+dip:       96.491       0.347      11.836      -0.664      -1.599    -108.327
   full:       64.742       0.322       0.001      -0.657      -0.898     -64.743


           -------------------------------------------------
          | TOTAL ENERGY             -267.477274832388 Eh   |
          | GRADIENT NORM               0.000390472484 Eh/α |
          | HOMO-LUMO GAP               0.939949435294 eV   |
           -------------------------------------------------

------------------------------------------------------------------------
 * finished run on 2021/11/21 at 21:10:21.501     
------------------------------------------------------------------------
 total:
 * wall-time:     0 d,  0 h,  0 min,  1.187 sec
 *  cpu-time:     0 d,  0 h,  0 min,  1.187 sec
 * ratio c/w:     1.000 speedup
 SCF:
 * wall-time:     0 d,  0 h,  0 min,  1.115 sec
 *  cpu-time:     0 d,  0 h,  0 min,  1.115 sec
 * ratio c/w:     1.000 speedup

