 Entering Gaussian System
 *********************************************
 Gaussian 98:
 frequency output generated by the xtb code
 *********************************************
                         Standard orientation:
 --------------------------------------------------------------------
  Center     Atomic     Atomic              Coordinates (Angstroms)
  Number     Number      Type              X           Y           Z
 --------------------------------------------------------------------
    1          6             0        3.861631   -1.400824   -3.409304
    2          6             0        3.020051   -1.112811   -2.397579
    3          6             0        3.823308   -0.444613   -1.388835
    4          6             0        3.299550    0.013671   -0.165742
    5          6             0        4.056729    0.631681    0.840629
    6          6             0        3.596874    1.090110    2.104832
    7          6             0        4.666456    1.628329    2.759758
    8          6             0        5.801699    1.515765    1.907970
    9          7             0        5.384146    0.902936    0.766009
   10          6             0        7.086330    1.962793    2.178891
   11          6             0        8.195689    1.888867    1.347853
   12          6             0        9.498057    2.418419    1.726301
   13          6             0       10.317067    2.181514    0.685051
   14          6             0        9.509951    1.505419   -0.319005
   15          7             0        8.240934    1.347973    0.112867
   16          6             0       10.011926    1.086555   -1.544751
   17          6             0        9.288691    0.430655   -2.528771
   18          6             0        9.749681   -0.032168   -3.794667
   19          6             0        8.696056   -0.621821   -4.427733
   20          6             0        7.563041   -0.532322   -3.567008
   21          7             0        7.970960    0.107220   -2.439299
   22          6             0        6.283347   -0.998032   -3.827625
   23          6             0        5.165939   -0.898057   -3.011072
   24          7             0        5.103718   -0.331896   -1.783167
   25          1             0        3.655385   -1.894499   -4.339525
   26          1             0        1.970839   -1.317925   -2.307205
   27          1             0        2.585037    1.010231    2.452012
   28          1             0        4.678389    2.067183    3.738438
   29          1             0        5.963385    0.682171   -0.035671
   30          1             0        7.234739    2.431366    3.141959
   31          1             0        9.713082    2.898107    2.662042
   32          1             0       11.357011    2.421511    0.572132
   33          1             0       11.054650    1.284689   -1.746819
   34          1             0       10.753169    0.077607   -4.157577
   35          1             0        8.689154   -1.077550   -5.398949
   36          1             0        7.395410    0.323925   -1.634555
   37          1             0        6.137655   -1.485964   -4.781567
   38          6             0        1.924711   -0.133080    0.058672
   39          6             0        0.723158   -0.226074    0.230367
   40          6             0       -0.608793   -0.299363    0.397586
   41          6             0       -1.818181   -0.342817    0.528719
   42          6             0       -9.435582    2.384462   -0.555394
   43          6             0      -10.326918    1.528334   -0.022737
   44          6             0       -9.549690    0.443164    0.556102
   45          6             0      -10.122773   -0.642779    1.205888
   46          6             0       -9.427742   -1.697428    1.776993
   47          6             0       -9.958393   -2.831332    2.456631
   48          6             0       -8.907918   -3.605100    2.851980
   49          6             0       -7.707906   -2.965212    2.423924
   50          7             0       -8.073795   -1.823836    1.783084
   51          6             0       -6.411432   -3.416050    2.619778
   52          6             0       -5.234588   -2.809463    2.204250
   53          6             0       -3.925598   -3.385664    2.464101
   54          6             0       -3.026620   -2.544625    1.916966
   55          6             0       -3.798134   -1.462788    1.330989
   56          7             0       -5.116422   -1.647798    1.519963
   57          6             0       -3.212704   -0.375591    0.657277
   58          6             0       -3.931095    0.689797    0.093101
   59          6             0       -3.400801    1.820312   -0.585741
   60          6             0       -4.453181    2.602839   -0.963473
   61          6             0       -5.649229    1.967041   -0.525392
   62          7             0       -5.281749    0.818594    0.107279
   63          6             0       -6.944859    2.425744   -0.710847
   64          6             0       -8.120761    1.814453   -0.298400
   65          7             0       -8.228593    0.648553    0.371594
   66          1             0       -9.609315    3.308504   -1.073004
   67          1             0      -11.398213    1.589985   -0.003443
   68          1             0      -11.200842   -0.667010    1.273409
   69          1             0      -11.003281   -3.016170    2.614092
   70          1             0       -8.945626   -4.533113    3.388965
   71          1             0       -7.447238   -1.148255    1.362604
   72          1             0       -6.306261   -4.349416    3.155579
   73          1             0       -3.756786   -4.304572    2.992017
   74          1             0       -1.956206   -2.614679    1.893842
   75          1             0       -2.356178    1.997224   -0.753364
   76          1             0       -4.415777    3.533348   -1.495724
   77          1             0       -5.911008    0.146268    0.530261
   78          1             0       -7.047402    3.363391   -1.239421
 --------------------------------------------------------------------
     1 basis functions        1 primitive gaussians
     1 alpha electrons        1 beta electrons

 Harmonic frequencies (cm**-1), IR intensities (km*mol⁻¹),
 Raman scattering activities (A**4/amu), Raman depolarization ratios,
 reduced masses (AMU), force constants (mDyne/A) and normal coordinates:
                      1                      2                      3
                        a                      a                      a 
 Frequencies --    -5.3893                 7.7400                 7.9738
 Red. masses --    11.2404                11.4155                11.4122
 Frc consts  --     0.0000                 0.0000                 0.0000
 IR Inten    --     0.1162                 0.4157                 0.2953
 Raman Activ --     0.0000                 0.0000                 0.0000
 Depolar     --     0.0000                 0.0000                 0.0000
 Atom AN      X      Y      Z        X      Y      Z        X      Y      Z
   1   6     0.03  -0.16   0.09    -0.06  -0.07   0.10     0.11  -0.11  -0.04
   2   6     0.02  -0.11   0.07    -0.03  -0.08   0.12     0.08  -0.14  -0.05
   3   6     0.01  -0.05   0.03    -0.01  -0.06   0.09     0.04  -0.10  -0.04
   4   6    -0.00   0.01   0.00     0.02  -0.07   0.11     0.00  -0.12  -0.06
   5   6    -0.01   0.08  -0.03     0.04  -0.06   0.09    -0.04  -0.09  -0.04
   6   6    -0.02   0.15  -0.06     0.08  -0.07   0.11    -0.07  -0.10  -0.05
   7   6    -0.03   0.19  -0.08     0.09  -0.05   0.07    -0.10  -0.06  -0.03
   8   6    -0.02   0.15  -0.06     0.06  -0.02   0.03    -0.09  -0.02  -0.02
   9   7    -0.01   0.09  -0.04     0.04  -0.03   0.05    -0.05  -0.04  -0.02
  10   6    -0.03   0.17  -0.08     0.06   0.01  -0.02    -0.11   0.03   0.00
  11   6    -0.02   0.13  -0.07     0.03   0.05  -0.06    -0.09   0.08   0.02
  12   6    -0.03   0.15  -0.09     0.03   0.09  -0.11    -0.12   0.13   0.04
  13   6    -0.02   0.10  -0.07    -0.01   0.12  -0.14    -0.10   0.17   0.05
  14   6    -0.01   0.04  -0.04    -0.03   0.10  -0.12    -0.06   0.13   0.04
  15   7    -0.01   0.06  -0.04    -0.00   0.06  -0.07    -0.06   0.08   0.02
  16   6     0.00  -0.02  -0.01    -0.06   0.12  -0.14    -0.02   0.15   0.04
  17   6     0.01  -0.08   0.02    -0.08   0.10  -0.11     0.02   0.12   0.04
  18   6     0.02  -0.15   0.05    -0.11   0.11  -0.13     0.06   0.14   0.04
  19   6     0.03  -0.19   0.07    -0.12   0.08  -0.09     0.09   0.09   0.03
  20   6     0.02  -0.15   0.06    -0.09   0.04  -0.04     0.08   0.04   0.02
  21   7     0.01  -0.09   0.03    -0.07   0.06  -0.06     0.04   0.07   0.02
  22   6     0.03  -0.17   0.08    -0.08  -0.00   0.01     0.10  -0.02  -0.00
  23   6     0.02  -0.13   0.07    -0.06  -0.03   0.05     0.09  -0.06  -0.02
  24   7     0.01  -0.07   0.04    -0.03  -0.03   0.05     0.05  -0.06  -0.02
  25   1     0.01  -0.06   0.03    -0.02  -0.02   0.03     0.04  -0.04  -0.01
  26   1     0.01  -0.03   0.02    -0.01  -0.03   0.05     0.03  -0.05  -0.02
  27   1    -0.01   0.05  -0.02     0.03  -0.03   0.04    -0.02  -0.04  -0.02
  28   1    -0.01   0.07  -0.03     0.03  -0.02   0.02    -0.04  -0.02  -0.01
  29   1    -0.00   0.01  -0.00     0.00  -0.00   0.01    -0.01  -0.01  -0.00
  30   1    -0.01   0.06  -0.03     0.02   0.00  -0.01    -0.04   0.01   0.00
  31   1    -0.01   0.06  -0.03     0.01   0.03  -0.03    -0.04   0.04   0.01
  32   1    -0.01   0.03  -0.02    -0.01   0.04  -0.05    -0.03   0.06   0.02
  33   1     0.00  -0.01  -0.00    -0.02   0.05  -0.05    -0.01   0.06   0.02
  34   1     0.01  -0.05   0.01    -0.04   0.04  -0.05     0.02   0.05   0.02
  35   1     0.01  -0.07   0.03    -0.04   0.02  -0.03     0.04   0.02   0.01
  36   1     0.00  -0.01   0.00    -0.01   0.01  -0.01     0.00   0.01   0.00
  37   1     0.01  -0.06   0.03    -0.03  -0.00   0.00     0.04  -0.01  -0.00
  38   6    -0.00   0.02   0.01     0.03  -0.09   0.15     0.00  -0.15  -0.08
  39   6    -0.00   0.02   0.01     0.03  -0.09   0.16     0.00  -0.17  -0.09
  40   6    -0.00   0.02   0.01     0.03  -0.09   0.16     0.00  -0.16  -0.09
  41   6     0.00   0.01   0.01     0.03  -0.08   0.15     0.00  -0.15  -0.09
  42   6     0.00   0.09   0.16     0.11   0.04  -0.12     0.07   0.11   0.08
  43   6     0.00   0.06   0.11     0.08   0.05  -0.16     0.06   0.15   0.12
  44   6     0.00   0.02   0.05     0.04   0.04  -0.13     0.03   0.12   0.10
  45   6    -0.00  -0.01  -0.01     0.00   0.04  -0.15     0.01   0.15   0.12
  46   6    -0.00  -0.04  -0.07    -0.04   0.03  -0.13    -0.02   0.12   0.10
  47   6    -0.00  -0.08  -0.13    -0.08   0.04  -0.15    -0.04   0.15   0.12
  48   6    -0.01  -0.10  -0.18    -0.10   0.03  -0.11    -0.06   0.10   0.09
  49   6    -0.00  -0.08  -0.14    -0.08   0.01  -0.06    -0.05   0.05   0.05
  50   7    -0.00  -0.05  -0.08    -0.04   0.02  -0.08    -0.02   0.07   0.06
  51   6    -0.01  -0.09  -0.16    -0.09  -0.00  -0.00    -0.06   0.00   0.01
  52   6    -0.00  -0.07  -0.13    -0.07  -0.02   0.04    -0.05  -0.04  -0.03
  53   6    -0.01  -0.09  -0.16    -0.09  -0.04   0.09    -0.06  -0.09  -0.06
  54   6    -0.00  -0.06  -0.12    -0.05  -0.06   0.12    -0.04  -0.12  -0.08
  55   6    -0.00  -0.03  -0.05    -0.02  -0.04   0.09    -0.02  -0.10  -0.06
  56   7    -0.00  -0.04  -0.07    -0.03  -0.03   0.05    -0.02  -0.05  -0.03
  57   6     0.00   0.01   0.01     0.02  -0.05   0.11     0.00  -0.11  -0.07
  58   6     0.00   0.05   0.07     0.06  -0.04   0.09     0.03  -0.09  -0.06
  59   6     0.00   0.09   0.14     0.10  -0.05   0.11     0.05  -0.12  -0.08
  60   6     0.01   0.11   0.19     0.13  -0.03   0.08     0.07  -0.08  -0.06
  61   6     0.00   0.08   0.15     0.10  -0.01   0.03     0.06  -0.04  -0.03
  62   7     0.00   0.05   0.09     0.07  -0.02   0.05     0.03  -0.05  -0.04
  63   6     0.01   0.10   0.17     0.12   0.01  -0.01     0.07   0.01   0.00
  64   6     0.00   0.07   0.13     0.09   0.02  -0.06     0.06   0.06   0.04
  65   7     0.00   0.04   0.07     0.05   0.02  -0.08     0.04   0.07   0.06
  66   1     0.00   0.03   0.06     0.04   0.01  -0.03     0.03   0.03   0.02
  67   1     0.00   0.02   0.03     0.02   0.02  -0.06     0.02   0.06   0.04
  68   1    -0.00  -0.00  -0.00    -0.00   0.02  -0.06     0.00   0.06   0.05
  69   1    -0.00  -0.03  -0.04    -0.03   0.02  -0.06    -0.01   0.05   0.05
  70   1    -0.00  -0.04  -0.07    -0.04   0.01  -0.03    -0.02   0.03   0.03
  71   1    -0.00  -0.01  -0.01    -0.00   0.00  -0.01    -0.00   0.01   0.01
  72   1    -0.00  -0.04  -0.06    -0.04  -0.00   0.00    -0.02  -0.00   0.00
  73   1    -0.00  -0.04  -0.06    -0.03  -0.01   0.03    -0.02  -0.03  -0.02
  74   1    -0.00  -0.02  -0.03    -0.02  -0.02   0.05    -0.01  -0.05  -0.03
  75   1     0.00   0.03   0.04     0.03  -0.02   0.04     0.02  -0.04  -0.03
  76   1     0.00   0.04   0.07     0.05  -0.01   0.02     0.03  -0.02  -0.02
  77   1     0.00   0.01   0.01     0.01  -0.00   0.01     0.01  -0.01  -0.00
  78   1     0.00   0.04   0.06     0.04   0.00  -0.00     0.03   0.00  -0.00
                      4                      5                      6
                        a                      a                      a 
 Frequencies --    23.4306                24.1866                41.7740
 Red. masses --    11.3828                11.3859                11.5994
 Frc consts  --     0.0000                 0.0000                 0.0000
 IR Inten    --     1.0671                 2.7327                 0.0475
 Raman Activ --     0.0000                 0.0000                 0.0000
 Depolar     --     0.0000                 0.0000                 0.0000
 Atom AN      X      Y      Z        X      Y      Z        X      Y      Z
   1   6     0.09  -0.19  -0.01    -0.04  -0.11   0.17     0.14  -0.10   0.07
   2   6     0.07  -0.18  -0.03    -0.02  -0.08   0.17     0.10  -0.11   0.04
   3   6     0.04  -0.14  -0.04     0.00  -0.04   0.14     0.05  -0.04   0.03
   4   6     0.01  -0.12  -0.05     0.03  -0.01   0.14     0.01   0.00   0.00
   5   6    -0.01  -0.14  -0.03     0.06  -0.03   0.13     0.02   0.04  -0.03
   6   6    -0.03  -0.18  -0.02     0.09  -0.05   0.15     0.06   0.11  -0.04
   7   6    -0.05  -0.19   0.01     0.12  -0.07   0.13     0.09   0.09  -0.08
   8   6    -0.04  -0.15   0.02     0.09  -0.07   0.09     0.08   0.01  -0.09
   9   7    -0.01  -0.13  -0.00     0.06  -0.05   0.10     0.03  -0.01  -0.07
  10   6    -0.05  -0.11   0.03     0.10  -0.06   0.06     0.09  -0.05  -0.09
  11   6    -0.06  -0.03   0.02     0.07  -0.02   0.00     0.12  -0.07  -0.05
  12   6    -0.08   0.04   0.02     0.07   0.02  -0.05     0.12  -0.11   0.01
  13   6    -0.08   0.13  -0.00     0.02   0.07  -0.09     0.15  -0.07   0.03
  14   6    -0.06   0.10  -0.01    -0.00   0.06  -0.07     0.17  -0.02  -0.02
  15   7    -0.04   0.01   0.00     0.03   0.01  -0.01     0.17  -0.03  -0.07
  16   6    -0.04   0.15  -0.02    -0.04   0.10  -0.10     0.18   0.05  -0.04
  17   6    -0.01   0.11  -0.02    -0.06   0.06  -0.06     0.15   0.09  -0.05
  18   6     0.02   0.13  -0.02    -0.10   0.07  -0.08     0.09   0.13  -0.09
  19   6     0.06   0.05  -0.01    -0.10   0.01  -0.02     0.06   0.12  -0.04
  20   6     0.06  -0.02  -0.00    -0.06  -0.03   0.03     0.10   0.09   0.03
  21   7     0.02   0.02  -0.01    -0.05   0.01  -0.00     0.17   0.08   0.01
  22   6     0.08  -0.11   0.01    -0.06  -0.08   0.09     0.11   0.04   0.07
  23   6     0.07  -0.14  -0.00    -0.03  -0.09   0.12     0.11  -0.02   0.08
  24   7     0.04  -0.13  -0.02    -0.01  -0.06   0.12     0.06   0.00   0.07
  25   1     0.03  -0.06   0.00    -0.02  -0.04   0.05     0.05  -0.04   0.02
  26   1     0.02  -0.06  -0.01    -0.00  -0.02   0.06     0.03  -0.05   0.01
  27   1    -0.01  -0.06  -0.01     0.03  -0.01   0.05     0.02   0.05  -0.01
  28   1    -0.02  -0.06   0.01     0.04  -0.03   0.04     0.04   0.03  -0.03
  29   1     0.00  -0.03  -0.00     0.01  -0.01   0.02    -0.01  -0.02  -0.03
  30   1    -0.02  -0.04   0.01     0.04  -0.02   0.02     0.03  -0.02  -0.02
  31   1    -0.03   0.01   0.01     0.03   0.00  -0.01     0.03  -0.04   0.01
  32   1    -0.03   0.06  -0.00     0.00   0.03  -0.04     0.05  -0.02   0.02
  33   1    -0.02   0.07  -0.01    -0.02   0.04  -0.04     0.05   0.02  -0.01
  34   1     0.00   0.06  -0.01    -0.03   0.03  -0.04     0.02   0.04  -0.04
  35   1     0.02   0.01  -0.00    -0.04   0.00  -0.00     0.00   0.04  -0.01
  36   1     0.00  -0.01  -0.00    -0.00  -0.00   0.01     0.07   0.02   0.02
  37   1     0.03  -0.04   0.00    -0.02  -0.03   0.03     0.03   0.01   0.02
  38   6    -0.00  -0.09  -0.08     0.02   0.03   0.13     0.00   0.00  -0.01
  39   6    -0.01  -0.01  -0.08     0.01   0.07   0.06     0.00  -0.00  -0.01
  40   6    -0.01   0.06  -0.07    -0.00   0.09  -0.00    -0.00  -0.01  -0.00
  41   6    -0.01   0.13  -0.03    -0.01   0.09  -0.09    -0.00  -0.02   0.01
  42   6    -0.08  -0.04  -0.01    -0.07  -0.00   0.06    -0.08  -0.06  -0.05
  43   6    -0.06  -0.10  -0.07    -0.05   0.02   0.14    -0.12  -0.03  -0.07
  44   6    -0.03  -0.07  -0.06    -0.02   0.02   0.11    -0.16  -0.03  -0.02
  45   6    -0.00  -0.11  -0.10     0.00   0.03   0.15    -0.19  -0.01   0.00
  46   6     0.03  -0.08  -0.07     0.03   0.02   0.10    -0.17   0.02   0.03
  47   6     0.06  -0.10  -0.08     0.06   0.02   0.12    -0.13   0.02   0.07
  48   6     0.08  -0.04  -0.03     0.08  -0.00   0.03    -0.10   0.06   0.06
  49   6     0.06   0.02   0.01     0.06  -0.01  -0.04    -0.12   0.08   0.01
  50   7     0.04  -0.01  -0.02     0.03   0.01   0.01    -0.18   0.06   0.00
  51   6     0.08   0.08   0.06     0.06  -0.03  -0.12    -0.12   0.08  -0.02
  52   6     0.06   0.12   0.07     0.04  -0.01  -0.16    -0.10   0.04  -0.04
  53   6     0.08   0.16   0.09     0.06  -0.01  -0.20    -0.12  -0.03  -0.05
  54   6     0.06   0.17   0.07     0.04   0.02  -0.19    -0.09  -0.06  -0.04
  55   6     0.03   0.14   0.04     0.01   0.03  -0.14    -0.04  -0.02  -0.02
  56   7     0.03   0.12   0.05     0.02   0.01  -0.13    -0.05   0.04  -0.03
  57   6    -0.00   0.14   0.02    -0.01   0.05  -0.13    -0.00  -0.02   0.01
  58   6    -0.03   0.13   0.04    -0.04   0.03  -0.13    -0.02  -0.01   0.05
  59   6    -0.06   0.16   0.06    -0.07   0.03  -0.17    -0.06   0.03   0.08
  60   6    -0.08   0.15   0.09    -0.09  -0.00  -0.17    -0.10   0.00   0.11
  61   6    -0.06   0.11   0.08    -0.07  -0.01  -0.13    -0.07  -0.06   0.09
  62   7    -0.03   0.11   0.06    -0.04   0.01  -0.13    -0.03  -0.06   0.06
  63   6    -0.07   0.07   0.07    -0.08  -0.03  -0.09    -0.08  -0.08   0.06
  64   6    -0.06   0.01   0.03    -0.06  -0.01  -0.02    -0.10  -0.08   0.01
  65   7    -0.03  -0.01  -0.01    -0.04   0.00   0.02    -0.16  -0.07   0.03
  66   1    -0.03  -0.01   0.00    -0.03  -0.00   0.01    -0.01  -0.02  -0.02
  67   1    -0.02  -0.04  -0.03    -0.01   0.01   0.06    -0.04  -0.00  -0.03
  68   1    -0.00  -0.05  -0.04     0.00   0.01   0.06    -0.05  -0.00  -0.00
  69   1     0.02  -0.04  -0.04     0.02   0.01   0.05    -0.03  -0.00   0.03
  70   1     0.03  -0.01  -0.01     0.03  -0.00   0.00    -0.02   0.02   0.02
  71   1     0.00   0.01   0.00     0.00   0.00  -0.01    -0.07   0.03  -0.01
  72   1     0.03   0.03   0.02     0.02  -0.01  -0.04    -0.04   0.02  -0.00
  73   1     0.03   0.05   0.03     0.02  -0.01  -0.07    -0.05  -0.01  -0.02
  74   1     0.02   0.06   0.02     0.01   0.01  -0.06    -0.03  -0.03  -0.01
  75   1    -0.02   0.05   0.02    -0.02   0.01  -0.05    -0.02   0.02   0.02
  76   1    -0.03   0.05   0.03    -0.03  -0.01  -0.06    -0.04   0.01   0.04
  77   1    -0.00   0.02   0.01    -0.01   0.00  -0.03     0.01  -0.03   0.02
  78   1    -0.03   0.02   0.03    -0.03  -0.01  -0.03    -0.02  -0.02   0.02
                      7                      8                      9
                        a                      a                      a 
 Frequencies --    42.0806                42.5572                60.8186
 Red. masses --    11.0695                10.8992                11.1190
 Frc consts  --     0.0000                 0.0000                 0.0000
 IR Inten    --     0.7793                 0.7759                 0.0405
 Raman Activ --     0.0000                 0.0000                 0.0000
 Depolar     --     0.0000                 0.0000                 0.0000
 Atom AN      X      Y      Z        X      Y      Z        X      Y      Z
   1   6     0.02   0.15  -0.05    -0.03   0.20  -0.09     0.05  -0.09  -0.01
   2   6     0.00   0.14  -0.07    -0.04   0.20  -0.10     0.00   0.06  -0.09
   3   6     0.00   0.07  -0.02    -0.01   0.09  -0.04    -0.02   0.10  -0.10
   4   6     0.00  -0.00   0.01     0.00  -0.00   0.00    -0.04   0.17  -0.14
   5   6     0.03  -0.07   0.03     0.03  -0.10   0.04    -0.03   0.10  -0.10
   6   6     0.08  -0.14   0.07     0.06  -0.20   0.09    -0.04   0.05  -0.08
   7   6     0.10  -0.15   0.05     0.07  -0.20   0.08    -0.02  -0.09  -0.01
   8   6     0.06  -0.08  -0.01     0.04  -0.10   0.03    -0.00  -0.10   0.02
   9   7     0.03  -0.05  -0.01     0.02  -0.05   0.01    -0.01   0.02  -0.05
  10   6     0.05  -0.02  -0.05     0.02  -0.01  -0.02     0.01  -0.19   0.07
  11   6     0.04   0.06  -0.07    -0.01   0.09  -0.05     0.00  -0.11   0.05
  12   6     0.01   0.15  -0.09    -0.04   0.20  -0.10    -0.00  -0.11   0.06
  13   6     0.02   0.16  -0.08    -0.03   0.20  -0.10    -0.04   0.05   0.00
  14   6     0.06   0.08  -0.06     0.00   0.10  -0.05    -0.04   0.10  -0.03
  15   7     0.07   0.04  -0.06     0.01   0.05  -0.04    -0.02   0.01  -0.00
  16   6     0.09   0.02  -0.02     0.03   0.01  -0.01    -0.05   0.18  -0.06
  17   6     0.10  -0.05   0.01     0.05  -0.08   0.03    -0.02   0.10  -0.04
  18   6     0.09  -0.13   0.04     0.07  -0.19   0.08     0.01   0.05  -0.01
  19   6     0.08  -0.13   0.07     0.07  -0.19   0.09     0.06  -0.09   0.05
  20   6     0.07  -0.05   0.06     0.04  -0.09   0.05     0.05  -0.11   0.04
  21   7     0.10  -0.01   0.03     0.04  -0.04   0.03     0.01   0.00  -0.01
  22   6     0.06   0.01   0.04     0.02  -0.00   0.02     0.08  -0.19   0.06
  23   6     0.03   0.07   0.00    -0.00   0.08  -0.03     0.05  -0.10   0.01
  24   7     0.02   0.04   0.02    -0.00   0.04  -0.01     0.01   0.02  -0.05
  25   1     0.01   0.06  -0.02    -0.01   0.08  -0.04     0.02  -0.05   0.01
  26   1    -0.00   0.05  -0.03    -0.02   0.08  -0.04    -0.00   0.03  -0.04
  27   1     0.03  -0.05   0.03     0.02  -0.08   0.04    -0.02   0.03  -0.03
  28   1     0.04  -0.06   0.02     0.03  -0.08   0.03    -0.00  -0.05   0.01
  29   1    -0.01  -0.00  -0.02    -0.00   0.00  -0.01    -0.00   0.01  -0.01
  30   1     0.01  -0.01  -0.01     0.00  -0.00  -0.00     0.01  -0.08   0.04
  31   1    -0.01   0.06  -0.03    -0.02   0.08  -0.04     0.00  -0.06   0.03
  32   1     0.00   0.06  -0.02    -0.02   0.08  -0.03    -0.01   0.03  -0.00
  33   1     0.03   0.01  -0.01     0.01   0.00  -0.00    -0.02   0.07  -0.03
  34   1     0.03  -0.05   0.01     0.02  -0.07   0.03     0.00   0.03  -0.01
  35   1     0.02  -0.05   0.03     0.02  -0.07   0.03     0.03  -0.05   0.02
  36   1     0.03   0.01   0.01     0.01   0.01   0.00    -0.00   0.00  -0.01
  37   1     0.02   0.00   0.01     0.01  -0.00   0.00     0.03  -0.08   0.03
  38   6     0.00  -0.00   0.01     0.00  -0.00   0.01    -0.04   0.20  -0.13
  39   6     0.00  -0.01   0.01     0.00   0.00   0.01    -0.02   0.20   0.00
  40   6     0.00  -0.01   0.01     0.00   0.01   0.01    -0.01   0.17   0.10
  41   6     0.00  -0.01   0.00     0.00   0.01   0.01     0.01   0.08   0.21
  42   6    -0.03   0.10   0.20    -0.03  -0.10  -0.17     0.03  -0.04  -0.10
  43   6    -0.05   0.11   0.19    -0.03  -0.10  -0.17     0.03   0.04   0.03
  44   6    -0.08   0.04   0.09    -0.03  -0.05  -0.07     0.02   0.06   0.08
  45   6    -0.10  -0.00   0.01    -0.03   0.00   0.01     0.02   0.11   0.15
  46   6    -0.09  -0.05  -0.08    -0.03   0.05   0.08     0.00   0.06   0.08
  47   6    -0.08  -0.11  -0.17    -0.01   0.09   0.17    -0.02   0.03   0.02
  48   6    -0.06  -0.09  -0.19    -0.01   0.10   0.16    -0.04  -0.05  -0.10
  49   6    -0.07  -0.02  -0.10    -0.02   0.05   0.07    -0.03  -0.07  -0.09
  50   7    -0.10  -0.00  -0.06    -0.03   0.03   0.04    -0.01  -0.01   0.01
  51   6    -0.06   0.03  -0.02    -0.02   0.01  -0.01    -0.04  -0.12  -0.15
  52   6    -0.05   0.07   0.07    -0.02  -0.03  -0.08    -0.03  -0.08  -0.05
  53   6    -0.05   0.11   0.19    -0.03  -0.10  -0.18    -0.03  -0.08  -0.03
  54   6    -0.03   0.10   0.20    -0.02  -0.10  -0.17    -0.01  -0.01   0.11
  55   6    -0.01   0.05   0.08    -0.01  -0.04  -0.07    -0.00   0.02   0.14
  56   7    -0.02   0.05   0.02    -0.01  -0.01  -0.04    -0.01  -0.02   0.06
  57   6    -0.00  -0.01   0.00     0.00   0.01   0.01     0.01   0.05   0.20
  58   6    -0.02  -0.06  -0.08     0.00   0.05   0.08     0.01   0.02   0.14
  59   6    -0.05  -0.11  -0.18    -0.00   0.10   0.17     0.03  -0.02   0.09
  60   6    -0.06  -0.12  -0.17    -0.01   0.09   0.17     0.04  -0.07  -0.05
  61   6    -0.04  -0.08  -0.05    -0.01   0.03   0.08     0.02  -0.07  -0.07
  62   7    -0.02  -0.06  -0.02    -0.00   0.01   0.05     0.01  -0.01   0.05
  63   6    -0.04  -0.04   0.03    -0.02  -0.02   0.00     0.03  -0.10  -0.17
  64   6    -0.05   0.02   0.11    -0.02  -0.06  -0.07     0.02  -0.05  -0.10
  65   7    -0.08  -0.00   0.07    -0.03  -0.04  -0.04     0.02   0.01   0.01
  66   1    -0.00   0.04   0.07    -0.01  -0.04  -0.07     0.01  -0.03  -0.05
  67   1    -0.01   0.05   0.07    -0.01  -0.03  -0.06     0.01   0.02   0.02
  68   1    -0.03  -0.00   0.00    -0.01   0.00   0.00     0.01   0.04   0.06
  69   1    -0.02  -0.05  -0.06    -0.00   0.03   0.07    -0.01   0.02   0.02
  70   1    -0.01  -0.04  -0.07     0.00   0.04   0.06    -0.02  -0.03  -0.05
  71   1    -0.03   0.02  -0.00    -0.01   0.00  -0.01     0.00  -0.00   0.01
  72   1    -0.02   0.01  -0.01    -0.01   0.00  -0.00    -0.02  -0.05  -0.07
  73   1    -0.02   0.04   0.07    -0.01  -0.04  -0.07    -0.01  -0.04  -0.03
  74   1    -0.01   0.03   0.08    -0.01  -0.04  -0.07    -0.00   0.01   0.05
  75   1    -0.02  -0.04  -0.07    -0.00   0.04   0.07     0.01  -0.00   0.04
  76   1    -0.03  -0.05  -0.07    -0.00   0.04   0.07     0.01  -0.03  -0.04
  77   1     0.01  -0.01   0.02     0.00  -0.01  -0.00    -0.00   0.00   0.01
  78   1    -0.01  -0.01   0.01    -0.00  -0.01   0.00     0.01  -0.04  -0.08
                     10                     11                     12
                        a                      a                      a 
 Frequencies --    62.1157                66.4217                95.5514
 Red. masses --    11.1057                11.7660                10.9208
 Frc consts  --     0.0000                 0.0000                 0.0000
 IR Inten    --     0.8588                 0.3292                46.2455
 Raman Activ --     0.0000                 0.0000                 0.0000
 Depolar     --     0.0000                 0.0000                 0.0000
 Atom AN      X      Y      Z        X      Y      Z        X      Y      Z
   1   6    -0.01  -0.03   0.07     0.03   0.03   0.03     0.00  -0.02   0.03
   2   6    -0.03   0.11   0.01    -0.03  -0.02  -0.00     0.00  -0.02   0.03
   3   6    -0.03   0.14  -0.01    -0.11  -0.02   0.05    -0.00   0.02   0.01
   4   6    -0.04   0.20  -0.04    -0.15  -0.05   0.04    -0.00   0.01   0.01
   5   6    -0.02   0.14  -0.01    -0.12  -0.05   0.01    -0.00   0.02   0.01
   6   6     0.01   0.09   0.01    -0.03  -0.01   0.03     0.01  -0.02   0.03
   7   6     0.05  -0.05   0.06     0.03  -0.02  -0.06     0.01  -0.02   0.02
   8   6     0.05  -0.07   0.06    -0.03  -0.06  -0.13     0.00   0.01   0.00
   9   7     0.00   0.05   0.01    -0.13  -0.08  -0.09    -0.01   0.04  -0.00
  10   6     0.07  -0.16   0.08    -0.02  -0.06  -0.17     0.01   0.01   0.00
  11   6     0.05  -0.10   0.04     0.02  -0.04  -0.13     0.00   0.01  -0.00
  12   6     0.05  -0.10   0.03    -0.02  -0.00  -0.05     0.02  -0.03   0.01
  13   6     0.01   0.04  -0.04     0.06   0.02   0.01     0.01  -0.03   0.01
  14   6    -0.02   0.09  -0.06     0.14   0.00  -0.04    -0.00   0.01  -0.01
  15   7     0.01   0.01  -0.01     0.12  -0.03  -0.13    -0.01   0.04  -0.02
  16   6    -0.05   0.16  -0.09     0.18   0.01  -0.03    -0.00   0.00  -0.01
  17   6    -0.04   0.08  -0.05     0.15   0.02  -0.01    -0.01   0.01  -0.01
  18   6    -0.03   0.02  -0.02     0.05  -0.00  -0.03     0.00  -0.03   0.01
  19   6    -0.01  -0.11   0.05    -0.01   0.04   0.04    -0.00  -0.03   0.01
  20   6     0.00  -0.11   0.06     0.04   0.08   0.12    -0.01   0.01  -0.00
  21   7    -0.01   0.01   0.01     0.15   0.07   0.09    -0.01   0.04  -0.02
  22   6     0.02  -0.16   0.11     0.03   0.09   0.15    -0.01   0.01   0.00
  23   6     0.00  -0.06   0.07     0.00   0.06   0.11    -0.01   0.02   0.00
  24   7    -0.02   0.06   0.02    -0.09   0.03   0.13    -0.01   0.04  -0.01
  25   1    -0.00  -0.03   0.03     0.03   0.01   0.00     0.00  -0.01   0.01
  26   1    -0.01   0.05  -0.00    -0.01  -0.02  -0.02     0.00  -0.01   0.01
  27   1     0.00   0.04   0.00    -0.00   0.00   0.03     0.01  -0.01   0.01
  28   1     0.02  -0.03   0.03     0.03   0.00  -0.02     0.01  -0.01   0.01
  29   1    -0.00   0.01   0.00    -0.07  -0.04  -0.05    -0.00   0.02  -0.00
  30   1     0.03  -0.08   0.04    -0.01  -0.01  -0.05     0.00  -0.00   0.00
  31   1     0.02  -0.05   0.02    -0.03  -0.00  -0.01     0.01  -0.02   0.01
  32   1    -0.00   0.03  -0.02     0.02   0.01   0.02     0.01  -0.02   0.00
  33   1    -0.02   0.06  -0.04     0.05   0.00  -0.01     0.00  -0.01   0.00
  34   1    -0.01   0.02  -0.02     0.01  -0.01  -0.03     0.00  -0.02   0.01
  35   1     0.00  -0.06   0.03    -0.03   0.01   0.01     0.00  -0.02   0.01
  36   1    -0.00   0.01   0.00     0.08   0.04   0.05    -0.00   0.02  -0.01
  37   1     0.01  -0.07   0.04     0.01   0.03   0.04    -0.00  -0.00   0.00
  38   6    -0.04   0.21  -0.06    -0.15  -0.05   0.03     0.00  -0.01   0.00
  39   6    -0.05   0.10  -0.14    -0.15  -0.03   0.03    -0.00  -0.04  -0.05
  40   6    -0.04  -0.01  -0.18    -0.15  -0.01   0.03    -0.00  -0.04  -0.06
  41   6    -0.04  -0.14  -0.19    -0.15   0.01   0.03    -0.00  -0.03  -0.05
  42   6     0.04   0.08   0.10    -0.01   0.03  -0.03    -0.01  -0.10  -0.18
  43   6     0.03  -0.01  -0.05     0.05  -0.01   0.01    -0.01  -0.11  -0.20
  44   6     0.03  -0.04  -0.11     0.13   0.03  -0.01     0.00   0.04   0.06
  45   6     0.03  -0.08  -0.18     0.18   0.02   0.01    -0.00   0.01   0.01
  46   6     0.02  -0.05  -0.10     0.15  -0.00   0.01     0.00   0.03   0.05
  47   6    -0.01  -0.00  -0.04     0.06   0.02  -0.01    -0.01  -0.12  -0.20
  48   6    -0.02   0.06   0.11    -0.01  -0.05   0.01    -0.01  -0.10  -0.18
  49   6    -0.01   0.04   0.13     0.04  -0.13   0.05     0.01   0.05   0.08
  50   7     0.02  -0.03   0.00     0.15  -0.11   0.05     0.01   0.15   0.26
  51   6    -0.01   0.06   0.20     0.03  -0.16   0.06     0.01   0.04   0.06
  52   6    -0.01   0.00   0.11    -0.00  -0.11   0.05     0.01   0.05   0.08
  53   6    -0.01  -0.01   0.09     0.03  -0.04   0.01    -0.01  -0.11  -0.20
  54   6    -0.02  -0.09  -0.06    -0.03   0.02   0.00    -0.01  -0.12  -0.21
  55   6    -0.03  -0.11  -0.10    -0.11  -0.01   0.03     0.01   0.04   0.06
  56   7    -0.03  -0.07  -0.01    -0.10  -0.10   0.07     0.02   0.15   0.25
  57   6    -0.04  -0.15  -0.16    -0.16   0.01   0.03     0.00   0.03   0.04
  58   6    -0.02  -0.11  -0.10    -0.12   0.03   0.01     0.00   0.03   0.05
  59   6     0.01  -0.09  -0.05    -0.04  -0.01   0.02    -0.01  -0.11  -0.20
  60   6     0.04   0.01   0.07     0.03   0.05  -0.04    -0.01  -0.11  -0.19
  61   6     0.03   0.05   0.08    -0.02   0.12  -0.08     0.00   0.03   0.06
  62   7    -0.01  -0.03  -0.04    -0.12   0.12  -0.05     0.01   0.13   0.23
  63   6     0.04   0.12   0.17    -0.01   0.14  -0.10     0.00   0.03   0.05
  64   6     0.04   0.08   0.10     0.02   0.10  -0.07     0.00   0.05   0.09
  65   7     0.04   0.01  -0.02     0.12   0.11  -0.07     0.01   0.15   0.26
  66   1     0.01   0.04   0.05    -0.02   0.00  -0.01    -0.00  -0.06  -0.10
  67   1     0.01  -0.01  -0.03     0.01  -0.02   0.01    -0.01  -0.06  -0.11
  68   1     0.01  -0.03  -0.07     0.05   0.00   0.00    -0.00  -0.02  -0.04
  69   1    -0.01  -0.00  -0.03     0.01   0.03  -0.01    -0.01  -0.07  -0.11
  70   1    -0.01   0.03   0.06    -0.03  -0.02   0.00    -0.00  -0.06  -0.10
  71   1     0.01  -0.02   0.00     0.08  -0.05   0.03     0.00   0.06   0.11
  72   1    -0.00   0.03   0.09     0.01  -0.05   0.01    -0.00  -0.01  -0.02
  73   1    -0.00   0.01   0.05     0.03  -0.01  -0.00    -0.01  -0.06  -0.11
  74   1    -0.01  -0.03  -0.04    -0.01   0.03  -0.01    -0.01  -0.07  -0.11
  75   1     0.00  -0.04  -0.03    -0.01  -0.02   0.02    -0.01  -0.06  -0.11
  76   1     0.02   0.01   0.04     0.03   0.01  -0.01    -0.01  -0.06  -0.11
  77   1    -0.01  -0.00  -0.01    -0.07   0.06  -0.03     0.01   0.06   0.10
  78   1     0.02   0.05   0.08    -0.01   0.04  -0.03    -0.00  -0.01  -0.02
                     13                     14                     15
                        a                      a                      a 
 Frequencies --    96.0239               106.9083               108.1021
 Red. masses --    10.9181                10.8878                10.9039
 Frc consts  --     0.0000                 0.0000                 0.0000
 IR Inten    --    49.5568                 0.2883                 0.3228
 Raman Activ --     0.0000                 0.0000                 0.0000
 Depolar     --     0.0000                 0.0000                 0.0000
 Atom AN      X      Y      Z        X      Y      Z        X      Y      Z
   1   6    -0.05   0.20  -0.10     0.05  -0.19   0.06     0.02  -0.12   0.09
   2   6    -0.05   0.21  -0.10     0.04  -0.16   0.04     0.03  -0.08   0.09
   3   6     0.02  -0.06   0.03    -0.00   0.01  -0.04     0.01   0.05   0.02
   4   6     0.01  -0.05   0.02    -0.01   0.09  -0.07    -0.00   0.10  -0.01
   5   6     0.02  -0.05   0.03     0.00   0.02  -0.04     0.01   0.05   0.02
   6   6    -0.04   0.20  -0.09     0.03  -0.15   0.03     0.04  -0.07   0.07
   7   6    -0.04   0.20  -0.09     0.03  -0.18   0.06     0.05  -0.12   0.09
   8   6     0.02  -0.06   0.03     0.00  -0.03   0.00     0.03  -0.01   0.04
   9   7     0.06  -0.24   0.11    -0.01   0.07  -0.05     0.00   0.07   0.01
  10   6     0.01  -0.05   0.02    -0.02   0.05  -0.02     0.02   0.04   0.01
  11   6     0.02  -0.09   0.04    -0.03   0.08  -0.02     0.00   0.06  -0.01
  12   6    -0.05   0.18  -0.08    -0.06   0.19  -0.07    -0.02   0.16  -0.08
  13   6    -0.06   0.20  -0.09    -0.02   0.05  -0.01    -0.00   0.05  -0.04
  14   6     0.01  -0.07   0.03     0.03  -0.11   0.06     0.02  -0.09   0.04
  15   7     0.07  -0.27   0.12     0.02  -0.09   0.05     0.03  -0.08   0.05
  16   6     0.00  -0.02   0.01     0.05  -0.20   0.10     0.03  -0.16   0.06
  17   6     0.01  -0.05   0.02     0.04  -0.12   0.06     0.01  -0.11   0.04
  18   6    -0.06   0.21  -0.10     0.00   0.04  -0.01    -0.02   0.03  -0.02
  19   6    -0.05   0.19  -0.09    -0.03   0.18  -0.09    -0.05   0.13  -0.08
  20   6     0.02  -0.09   0.04    -0.01   0.08  -0.05    -0.03   0.05  -0.04
  21   7     0.07  -0.27   0.12     0.03  -0.09   0.03     0.01  -0.09   0.03
  22   6     0.02  -0.07   0.03    -0.00   0.06  -0.05    -0.03   0.05  -0.02
  23   6     0.02  -0.08   0.03     0.01  -0.03  -0.02     0.00  -0.00   0.02
  24   7     0.06  -0.26   0.12    -0.01   0.07  -0.07     0.00   0.08  -0.01
  25   1    -0.03   0.11  -0.05     0.02  -0.09   0.03     0.01  -0.06   0.04
  26   1    -0.03   0.12  -0.06     0.02  -0.07   0.02     0.01  -0.04   0.04
  27   1    -0.03   0.11  -0.05     0.01  -0.07   0.02     0.02  -0.04   0.03
  28   1    -0.03   0.11  -0.05     0.01  -0.09   0.03     0.02  -0.06   0.04
  29   1     0.03  -0.10   0.05    -0.00   0.05  -0.02    -0.00   0.04  -0.01
  30   1    -0.01   0.03  -0.01    -0.01   0.02  -0.01     0.01   0.02  -0.00
  31   1    -0.03   0.10  -0.05    -0.03   0.10  -0.04    -0.01   0.08  -0.04
  32   1    -0.03   0.11  -0.05    -0.01   0.02  -0.01    -0.00   0.02  -0.02
  33   1    -0.01   0.04  -0.02     0.02  -0.07   0.04     0.01  -0.05   0.02
  34   1    -0.03   0.12  -0.05     0.00   0.02  -0.00    -0.01   0.01  -0.01
  35   1    -0.03   0.10  -0.05    -0.02   0.10  -0.05    -0.02   0.07  -0.04
  36   1     0.03  -0.11   0.05     0.01  -0.05   0.02     0.01  -0.04   0.01
  37   1    -0.01   0.02  -0.01    -0.00   0.03  -0.02    -0.01   0.02  -0.01
  38   6    -0.00   0.05  -0.02    -0.02   0.18  -0.07    -0.02   0.13  -0.08
  39   6    -0.01   0.06  -0.03    -0.02   0.31   0.03    -0.04   0.09  -0.26
  40   6    -0.01   0.05  -0.03    -0.01   0.28   0.09    -0.04   0.02  -0.29
  41   6    -0.00  -0.00  -0.00    -0.00   0.09   0.13    -0.02  -0.09  -0.17
  42   6     0.01  -0.01  -0.02     0.02   0.09   0.14    -0.00  -0.09  -0.19
  43   6     0.00  -0.01  -0.03     0.01   0.03   0.03     0.00  -0.02  -0.05
  44   6     0.00   0.00   0.00     0.00  -0.04  -0.10     0.01   0.08   0.11
  45   6    -0.00   0.00  -0.01    -0.00  -0.08  -0.16     0.02   0.12   0.19
  46   6    -0.00   0.00   0.00    -0.01  -0.05  -0.10     0.01   0.07   0.12
  47   6    -0.01  -0.01  -0.03    -0.02   0.03   0.02    -0.02  -0.02  -0.06
  48   6    -0.01  -0.01  -0.02    -0.02   0.08   0.14    -0.03  -0.10  -0.18
  49   6    -0.01   0.01   0.02    -0.01   0.02   0.07    -0.02  -0.05  -0.06
  50   7    -0.00   0.02   0.04    -0.01  -0.05  -0.07     0.00   0.06   0.12
  51   6    -0.01   0.00   0.02    -0.02   0.01   0.06    -0.02  -0.05  -0.04
  52   6    -0.00  -0.00   0.02    -0.01  -0.04   0.00    -0.01  -0.01   0.04
  53   6    -0.01  -0.03  -0.02    -0.02  -0.11  -0.11    -0.00   0.07   0.18
  54   6    -0.00  -0.04  -0.03    -0.02  -0.10  -0.08    -0.00   0.04   0.14
  55   6     0.00  -0.01   0.01    -0.00  -0.02   0.04    -0.01  -0.05  -0.02
  56   7     0.00   0.01   0.04    -0.00   0.00   0.08    -0.01  -0.07  -0.06
  57   6     0.00  -0.01   0.01    -0.00   0.01   0.09    -0.02  -0.09  -0.09
  58   6     0.00  -0.01   0.01    -0.01  -0.02   0.04    -0.02  -0.05  -0.02
  59   6     0.00  -0.03  -0.03    -0.00  -0.10  -0.08     0.01   0.04   0.14
  60   6     0.01  -0.03  -0.03     0.01  -0.10  -0.12     0.02   0.07   0.18
  61   6     0.01  -0.00   0.01     0.01  -0.03  -0.01     0.01   0.00   0.03
  62   7     0.00   0.01   0.04    -0.01   0.01   0.07    -0.02  -0.06  -0.07
  63   6     0.01   0.00   0.01     0.02   0.02   0.04     0.01  -0.03  -0.05
  64   6     0.01   0.01   0.02     0.01   0.04   0.05     0.00  -0.03  -0.07
  65   7     0.00   0.02   0.03     0.00  -0.03  -0.08     0.01   0.06   0.09
  66   1     0.00  -0.01  -0.01     0.01   0.05   0.08    -0.00  -0.05  -0.10
  67   1     0.00  -0.01  -0.02     0.00   0.01   0.01     0.00  -0.01  -0.02
  68   1    -0.00  -0.00  -0.01    -0.00  -0.03  -0.06     0.00   0.04   0.06
  69   1    -0.00  -0.01  -0.02    -0.00   0.01   0.01    -0.01  -0.01  -0.03
  70   1    -0.00  -0.01  -0.01    -0.01   0.04   0.08    -0.01  -0.06  -0.10
  71   1     0.00   0.01   0.01     0.00  -0.03  -0.03     0.01   0.03   0.06
  72   1    -0.00  -0.00   0.00    -0.01   0.01   0.03    -0.01  -0.02  -0.02
  73   1    -0.00  -0.01  -0.01    -0.01  -0.05  -0.06     0.00   0.04   0.09
  74   1    -0.00  -0.02  -0.02    -0.01  -0.04  -0.04     0.00   0.03   0.06
  75   1     0.00  -0.01  -0.01    -0.00  -0.04  -0.04     0.00   0.02   0.07
  76   1     0.00  -0.01  -0.02     0.00  -0.05  -0.06     0.01   0.04   0.09
  77   1     0.00   0.01   0.02    -0.00   0.02   0.04    -0.01  -0.03  -0.05
  78   1     0.00  -0.00  -0.00     0.01   0.01   0.02     0.00  -0.01  -0.02
                     16                     17                     18
                        a                      a                      a 
 Frequencies --   116.7852               117.0928               134.5246
 Red. masses --    10.7702                10.7567                11.8406
 Frc consts  --     0.0000                 0.0000                 0.0000
 IR Inten    --     0.0740                 0.3467                 0.1785
 Raman Activ --     0.0000                 0.0000                 0.0000
 Depolar     --     0.0000                 0.0000                 0.0000
 Atom AN      X      Y      Z        X      Y      Z        X      Y      Z
   1   6    -0.01   0.04  -0.03     0.02  -0.06   0.03    -0.03   0.05  -0.08
   2   6    -0.03   0.11  -0.06     0.05  -0.20   0.09    -0.02  -0.01  -0.05
   3   6    -0.01   0.02  -0.02     0.01  -0.05   0.02     0.01  -0.16   0.02
   4   6    -0.00  -0.00  -0.01     0.00  -0.02   0.01     0.04  -0.14   0.03
   5   6     0.00  -0.02  -0.00    -0.00   0.01  -0.01     0.07  -0.18   0.03
   6   6     0.03  -0.13   0.05    -0.05   0.22  -0.10     0.02  -0.06  -0.03
   7   6     0.01  -0.06   0.02    -0.02   0.11  -0.05    -0.01   0.05  -0.07
   8   6    -0.02   0.08  -0.04     0.04  -0.15   0.06     0.01  -0.00  -0.03
   9   7    -0.03   0.12  -0.06     0.05  -0.22   0.09     0.07  -0.20   0.05
  10   6    -0.03   0.12  -0.06     0.05  -0.21   0.09    -0.03   0.12  -0.05
  11   6    -0.02   0.07  -0.03     0.03  -0.13   0.05    -0.01   0.11  -0.02
  12   6     0.01  -0.05   0.03    -0.03   0.08  -0.04     0.04  -0.06   0.05
  13   6     0.03  -0.12   0.06    -0.06   0.20  -0.09     0.05  -0.12   0.08
  14   6     0.01  -0.02   0.01    -0.01   0.04  -0.02     0.01   0.05   0.00
  15   7    -0.02   0.08  -0.04     0.03  -0.14   0.06    -0.03   0.19  -0.06
  16   6     0.00   0.00   0.00     0.00   0.00   0.00    -0.01   0.04   0.00
  17   6    -0.01   0.02  -0.01     0.01  -0.03   0.01    -0.03   0.07  -0.01
  18   6    -0.04   0.12  -0.06     0.07  -0.22   0.10     0.02  -0.06   0.06
  19   6    -0.02   0.06  -0.02     0.04  -0.11   0.05     0.03  -0.06   0.05
  20   6     0.02  -0.08   0.04    -0.03   0.14  -0.07    -0.01   0.06  -0.02
  21   7     0.03  -0.10   0.05    -0.04   0.18  -0.09    -0.06   0.16  -0.06
  22   6     0.03  -0.12   0.06    -0.05   0.21  -0.10    -0.00   0.03  -0.03
  23   6     0.02  -0.08   0.03    -0.03   0.14  -0.07    -0.00  -0.06  -0.02
  24   7     0.02  -0.09   0.03    -0.03   0.14  -0.07     0.03  -0.22   0.05
  25   1    -0.00   0.02  -0.01     0.01  -0.03   0.01    -0.02   0.05  -0.04
  26   1    -0.02   0.06  -0.03     0.03  -0.11   0.05    -0.01   0.01  -0.02
  27   1     0.02  -0.07   0.03    -0.03   0.13  -0.06     0.01  -0.01  -0.01
  28   1     0.01  -0.03   0.01    -0.01   0.06  -0.03    -0.01   0.05  -0.04
  29   1    -0.01   0.05  -0.02     0.02  -0.09   0.04     0.03  -0.06   0.02
  30   1    -0.01   0.03  -0.01     0.01  -0.06   0.02    -0.02   0.05  -0.02
  31   1     0.01  -0.03   0.01    -0.01   0.04  -0.02     0.02  -0.04   0.03
  32   1     0.02  -0.07   0.03    -0.03   0.11  -0.05     0.03  -0.08   0.04
  33   1    -0.00   0.00  -0.00     0.00  -0.00   0.00     0.00  -0.02   0.01
  34   1    -0.02   0.07  -0.03     0.04  -0.12   0.06     0.01  -0.04   0.03
  35   1    -0.01   0.03  -0.01     0.02  -0.06   0.03     0.02  -0.04   0.03
  36   1     0.01  -0.04   0.02    -0.02   0.08  -0.04    -0.02   0.06  -0.03
  37   1     0.01  -0.04   0.02    -0.01   0.06  -0.03     0.00   0.02  -0.02
  38   6     0.00  -0.01   0.01    -0.00   0.01  -0.00     0.00   0.08  -0.01
  39   6     0.01   0.00   0.05    -0.00   0.04   0.00    -0.01   0.39   0.04
  40   6     0.01   0.01   0.05    -0.00   0.04   0.01    -0.02   0.39   0.04
  41   6     0.00   0.01   0.02    -0.00   0.01   0.01    -0.01   0.07   0.03
  42   6     0.00   0.05   0.09     0.00   0.03   0.06    -0.02   0.01  -0.07
  43   6     0.01   0.11   0.20     0.01   0.07   0.12    -0.02  -0.02  -0.11
  44   6     0.00   0.02   0.04     0.00   0.01   0.02    -0.02   0.05   0.00
  45   6    -0.00  -0.01  -0.01     0.00  -0.00  -0.01     0.01   0.04   0.00
  46   6     0.00  -0.02  -0.04     0.00  -0.01  -0.02     0.02   0.06   0.02
  47   6    -0.01  -0.12  -0.22    -0.01  -0.07  -0.12     0.00   0.01  -0.06
  48   6     0.00  -0.05  -0.10    -0.00  -0.03  -0.05    -0.01   0.00  -0.05
  49   6     0.01   0.08   0.14     0.00   0.05   0.08     0.01   0.03   0.03
  50   7     0.01   0.10   0.17     0.01   0.06   0.10     0.03   0.07   0.09
  51   6     0.01   0.12   0.21     0.00   0.07   0.12    -0.01  -0.01   0.04
  52   6     0.01   0.08   0.13     0.00   0.04   0.08     0.01  -0.07   0.01
  53   6    -0.00  -0.04  -0.07    -0.00  -0.03  -0.04     0.02  -0.03   0.09
  54   6    -0.01  -0.12  -0.20    -0.01  -0.07  -0.11     0.02  -0.06   0.05
  55   6    -0.00  -0.02  -0.05    -0.00  -0.02  -0.02     0.02  -0.11  -0.05
  56   7     0.01   0.08   0.14     0.00   0.04   0.09     0.02  -0.14  -0.09
  57   6     0.00  -0.00  -0.01    -0.00  -0.01   0.00    -0.01  -0.10  -0.05
  58   6     0.00   0.01   0.01    -0.00   0.00   0.02    -0.05  -0.13  -0.07
  59   6     0.01   0.12   0.21     0.01   0.06   0.12    -0.03  -0.09   0.01
  60   6     0.00   0.05   0.09     0.00   0.02   0.05    -0.01  -0.03   0.08
  61   6    -0.01  -0.08  -0.15    -0.01  -0.05  -0.08    -0.02  -0.04   0.03
  62   7    -0.01  -0.12  -0.21    -0.01  -0.07  -0.11    -0.05  -0.12  -0.09
  63   6    -0.01  -0.11  -0.20    -0.01  -0.06  -0.12     0.00   0.05   0.08
  64   6    -0.01  -0.07  -0.12    -0.00  -0.04  -0.07    -0.02   0.07   0.05
  65   7    -0.01  -0.08  -0.14    -0.00  -0.04  -0.08    -0.02   0.10   0.10
  66   1     0.00   0.03   0.05     0.00   0.02   0.03    -0.01  -0.01  -0.04
  67   1     0.00   0.06   0.11     0.00   0.04   0.06    -0.01  -0.02  -0.06
  68   1    -0.00  -0.01  -0.01     0.00  -0.00  -0.01     0.00  -0.00  -0.01
  69   1    -0.00  -0.07  -0.12    -0.00  -0.04  -0.07    -0.00  -0.00  -0.04
  70   1    -0.00  -0.03  -0.05    -0.00  -0.02  -0.03    -0.01  -0.01  -0.03
  71   1     0.00   0.05   0.08     0.00   0.03   0.04     0.01   0.02   0.04
  72   1     0.00   0.04   0.06     0.00   0.02   0.04    -0.01  -0.00   0.02
  73   1    -0.00  -0.02  -0.04    -0.00  -0.02  -0.02     0.00   0.00   0.05
  74   1    -0.01  -0.06  -0.11    -0.00  -0.04  -0.06     0.01  -0.01   0.03
  75   1     0.01   0.07   0.12     0.00   0.04   0.07    -0.01  -0.03   0.01
  76   1     0.00   0.03   0.06     0.00   0.02   0.03     0.00   0.00   0.05
  77   1    -0.00  -0.05  -0.09    -0.00  -0.03  -0.05    -0.02  -0.03  -0.03
  78   1    -0.00  -0.03  -0.05    -0.00  -0.02  -0.03     0.01   0.02   0.03
                     19                     20                     21
                        a                      a                      a 
 Frequencies --   135.2684               142.7826               142.9876
 Red. masses --    11.8647                12.0152                12.0146
 Frc consts  --     0.0000                 0.0000                 0.0000
 IR Inten    --     0.0461                 0.0717                 0.3050
 Raman Activ --     0.0000                 0.0000                 0.0000
 Depolar     --     0.0000                 0.0000                 0.0000
 Atom AN      X      Y      Z        X      Y      Z        X      Y      Z
   1   6     0.02   0.09   0.04     0.13   0.07   0.06    -0.11  -0.04  -0.07
   2   6     0.04   0.06   0.06     0.12   0.06   0.06    -0.10  -0.05  -0.05
   3   6     0.08  -0.04   0.10     0.11   0.04   0.08    -0.08  -0.09  -0.04
   4   6     0.04  -0.05   0.09     0.01   0.00   0.05     0.01  -0.04  -0.02
   5   6     0.01  -0.08   0.13    -0.07  -0.01   0.12     0.09  -0.06  -0.07
   6   6    -0.00   0.00   0.10    -0.09   0.01   0.10     0.09  -0.03  -0.08
   7   6    -0.01   0.07   0.06    -0.10   0.03   0.10     0.09  -0.01  -0.09
   8   6    -0.01   0.03   0.07    -0.10   0.02   0.10     0.09  -0.02  -0.08
   9   7     0.01  -0.09   0.13    -0.09  -0.02   0.14     0.10  -0.08  -0.07
  10   6    -0.01   0.09  -0.01    -0.08   0.02  -0.01     0.06   0.04  -0.01
  11   6    -0.03   0.05  -0.04    -0.14  -0.04  -0.09     0.11   0.09   0.06
  12   6     0.01  -0.06  -0.01    -0.13  -0.08  -0.07     0.12   0.05   0.07
  13   6     0.01  -0.11  -0.00    -0.12  -0.10  -0.06     0.12   0.03   0.07
  14   6    -0.04  -0.00  -0.04    -0.12  -0.06  -0.08     0.10   0.06   0.06
  15   7    -0.06   0.09  -0.07    -0.15  -0.04  -0.11     0.11   0.11   0.06
  16   6    -0.02   0.00  -0.04    -0.01  -0.03  -0.05     0.00   0.02   0.04
  17   6     0.00   0.02  -0.06     0.09  -0.02  -0.12    -0.09   0.04   0.09
  18   6     0.02  -0.05  -0.03     0.10  -0.04  -0.11    -0.08   0.00   0.11
  19   6     0.02  -0.05  -0.02     0.10  -0.03  -0.11    -0.08   0.01   0.10
  20   6     0.00   0.02  -0.05     0.10  -0.01  -0.12    -0.09   0.04   0.08
  21   7    -0.01   0.08  -0.09     0.10   0.00  -0.14    -0.11   0.07   0.09
  22   6    -0.00   0.02  -0.00     0.07   0.02  -0.01    -0.06  -0.00  -0.00
  23   6     0.04   0.01   0.06     0.13   0.05   0.08    -0.10  -0.07  -0.06
  24   7     0.09  -0.08   0.11     0.14   0.03   0.10    -0.09  -0.12  -0.05
  25   1    -0.00   0.05   0.00     0.04   0.02   0.02    -0.04  -0.00  -0.02
  26   1     0.01   0.03   0.01     0.03   0.02   0.01    -0.03  -0.01  -0.01
  27   1    -0.00   0.00   0.03    -0.03   0.00   0.03     0.03  -0.00  -0.02
  28   1    -0.01   0.04   0.01    -0.03   0.02   0.03     0.02   0.01  -0.03
  29   1     0.00  -0.03   0.04    -0.02  -0.01   0.04     0.03  -0.02  -0.02
  30   1     0.01   0.04  -0.01     0.01   0.01  -0.01    -0.01   0.01   0.00
  31   1     0.01  -0.03   0.00    -0.04  -0.03  -0.02     0.04   0.01   0.02
  32   1     0.01  -0.06   0.01    -0.03  -0.04  -0.01     0.04  -0.00   0.02
  33   1     0.00  -0.01   0.00     0.00  -0.00   0.02     0.00  -0.01  -0.01
  34   1     0.01  -0.03  -0.00     0.03  -0.02  -0.03    -0.02  -0.01   0.04
  35   1     0.01  -0.03   0.00     0.03  -0.01  -0.03    -0.02  -0.00   0.03
  36   1    -0.01   0.03  -0.03     0.02   0.00  -0.04    -0.03   0.02   0.02
  37   1    -0.02   0.01  -0.00    -0.01   0.00   0.00     0.01   0.01  -0.01
  38   6     0.00   0.03  -0.07    -0.01   0.02  -0.03    -0.00   0.05  -0.01
  39   6    -0.05   0.04  -0.41    -0.00   0.12   0.05    -0.02   0.05  -0.15
  40   6    -0.05   0.04  -0.41    -0.00   0.12   0.05    -0.02   0.05  -0.15
  41   6    -0.02  -0.01  -0.09     0.00   0.01   0.05    -0.01  -0.04  -0.03
  42   6    -0.01   0.06   0.05     0.12  -0.09   0.03     0.13  -0.09   0.05
  43   6    -0.01   0.10   0.11     0.11  -0.09   0.01     0.13  -0.07   0.08
  44   6    -0.02   0.01  -0.05     0.10  -0.08   0.05     0.12  -0.09   0.04
  45   6     0.00   0.01  -0.04     0.00  -0.04   0.02     0.01  -0.04   0.03
  46   6     0.01  -0.01  -0.07    -0.09  -0.08   0.06    -0.10  -0.10   0.05
  47   6     0.01   0.06   0.05    -0.10  -0.09   0.03    -0.11  -0.08   0.07
  48   6    -0.00   0.05   0.05    -0.09  -0.09   0.04    -0.11  -0.09   0.07
  49   6     0.00  -0.02  -0.06    -0.09  -0.07   0.07    -0.11  -0.11   0.04
  50   7     0.01  -0.07  -0.16    -0.10  -0.07   0.10    -0.11  -0.13   0.03
  51   6    -0.01  -0.04  -0.02    -0.06   0.01   0.01    -0.07  -0.01   0.00
  52   6     0.01  -0.02   0.06    -0.11   0.07  -0.05    -0.13   0.09  -0.02
  53   6     0.01  -0.09  -0.04    -0.11   0.08  -0.03    -0.13   0.07  -0.05
  54   6     0.02  -0.06   0.02    -0.11   0.07  -0.03    -0.13   0.07  -0.04
  55   6     0.03   0.03   0.15    -0.10   0.05  -0.07    -0.11   0.09  -0.01
  56   7     0.03   0.05   0.21    -0.12   0.06  -0.09    -0.13   0.12   0.00
  57   6     0.00   0.03   0.14    -0.01   0.03  -0.04    -0.01   0.05  -0.00
  58   6    -0.02   0.04   0.19     0.07   0.05  -0.09     0.08   0.10  -0.01
  59   6    -0.02  -0.03   0.07     0.09   0.07  -0.06     0.10   0.08  -0.04
  60   6    -0.01  -0.08  -0.03     0.09   0.08  -0.04     0.10   0.08  -0.06
  61   6    -0.02  -0.03   0.01     0.09   0.07  -0.05     0.10   0.09  -0.05
  62   7    -0.02   0.06   0.20     0.09   0.06  -0.11     0.10   0.13  -0.01
  63   6    -0.01  -0.06  -0.11     0.06   0.01   0.03     0.07  -0.02  -0.03
  64   6    -0.02  -0.03  -0.10     0.11  -0.07   0.07     0.12  -0.10   0.01
  65   7    -0.03  -0.06  -0.17     0.12  -0.07   0.09     0.14  -0.12   0.01
  66   1    -0.00   0.03   0.04     0.03  -0.03   0.00     0.04  -0.02   0.02
  67   1    -0.00   0.05   0.07     0.03  -0.03  -0.01     0.04  -0.01   0.03
  68   1     0.00   0.01   0.02    -0.00   0.01  -0.02     0.00   0.02   0.00
  69   1     0.00   0.04   0.04    -0.03  -0.03   0.00    -0.03  -0.02   0.03
  70   1    -0.00   0.03   0.04    -0.03  -0.03   0.01    -0.03  -0.02   0.02
  71   1     0.00  -0.03  -0.06    -0.02  -0.02   0.03    -0.03  -0.04   0.01
  72   1    -0.01  -0.02  -0.01     0.01   0.01   0.00     0.01  -0.00  -0.00
  73   1    -0.00  -0.04  -0.04    -0.03   0.03  -0.00    -0.04   0.02  -0.02
  74   1     0.00  -0.03  -0.01    -0.03   0.02  -0.01    -0.04   0.02  -0.02
  75   1    -0.00  -0.01   0.02     0.03   0.02  -0.01     0.03   0.02  -0.01
  76   1    -0.00  -0.04  -0.04     0.03   0.03  -0.00     0.03   0.02  -0.03
  77   1    -0.01   0.03   0.06     0.02   0.01  -0.03     0.02   0.04  -0.00
  78   1     0.01  -0.03  -0.05    -0.01   0.00   0.01    -0.01  -0.01  -0.01
                     22                     23                     24
                        a                      a                      a 
 Frequencies --   174.9831               181.3902               181.7505
 Red. masses --    11.6281                11.3944                11.3856
 Frc consts  --     0.0000                 0.0000                 0.0000
 IR Inten    --     0.7944                 0.1640                 0.1858
 Raman Activ --     0.0000                 0.0000                 0.0000
 Depolar     --     0.0000                 0.0000                 0.0000
 Atom AN      X      Y      Z        X      Y      Z        X      Y      Z
   1   6    -0.09  -0.02   0.04    -0.02   0.09  -0.05    -0.04   0.12  -0.05
   2   6    -0.12  -0.01   0.01     0.02  -0.10   0.04     0.03  -0.13   0.07
   3   6    -0.13  -0.00   0.02     0.03  -0.15   0.07     0.04  -0.18   0.09
   4   6    -0.09   0.01   0.00     0.01  -0.05   0.02     0.01  -0.06   0.03
   5   6    -0.12  -0.02   0.02    -0.03   0.10  -0.05    -0.03   0.13  -0.05
   6   6    -0.11  -0.01   0.02    -0.02   0.03  -0.02    -0.01   0.04  -0.01
   7   6    -0.08  -0.03  -0.02    -0.00  -0.04   0.01     0.01  -0.04   0.02
   8   6    -0.10  -0.06  -0.05    -0.02   0.02  -0.01    -0.01   0.04  -0.01
   9   7    -0.14  -0.07  -0.03    -0.05   0.18  -0.08    -0.06   0.23  -0.10
  10   6    -0.09  -0.07  -0.12     0.02  -0.11   0.04     0.04  -0.13   0.06
  11   6    -0.10  -0.07  -0.14    -0.00  -0.04   0.01     0.01  -0.04   0.02
  12   6    -0.14  -0.04  -0.04     0.01  -0.11   0.04     0.04  -0.14   0.06
  13   6    -0.05  -0.02   0.03    -0.03   0.07  -0.03    -0.02   0.10  -0.05
  14   6     0.04  -0.02  -0.04    -0.05   0.14  -0.07    -0.05   0.18  -0.08
  15   7     0.00  -0.06  -0.15    -0.05   0.13  -0.07    -0.04   0.17  -0.08
  16   6     0.11   0.00  -0.01    -0.01   0.05  -0.02    -0.02   0.07  -0.03
  17   6     0.06   0.03   0.01     0.04  -0.12   0.05     0.04  -0.15   0.07
  18   6    -0.06  -0.02  -0.01     0.02  -0.05   0.02     0.01  -0.06   0.03
  19   6    -0.14   0.01   0.10    -0.00   0.04  -0.02    -0.02   0.04  -0.02
  20   6    -0.07   0.09   0.18     0.01  -0.02   0.01     0.01  -0.03   0.02
  21   7     0.05   0.11   0.14     0.07  -0.20   0.09     0.07  -0.27   0.13
  22   6    -0.06   0.05   0.16    -0.03   0.14  -0.06    -0.05   0.18  -0.08
  23   6    -0.10  -0.00   0.08    -0.01   0.05  -0.02    -0.02   0.07  -0.03
  24   7    -0.14   0.00   0.07     0.02  -0.12   0.06     0.03  -0.14   0.07
  25   1    -0.01  -0.01   0.01    -0.01   0.06  -0.03    -0.02   0.08  -0.04
  26   1    -0.04  -0.00  -0.00     0.01  -0.04   0.02     0.01  -0.06   0.03
  27   1    -0.03   0.00   0.01    -0.00  -0.00  -0.00     0.00  -0.00   0.00
  28   1    -0.01  -0.01  -0.01     0.01  -0.04   0.02     0.01  -0.04   0.02
  29   1    -0.06  -0.03  -0.02    -0.01   0.05  -0.02    -0.02   0.06  -0.03
  30   1    -0.01  -0.02  -0.04     0.02  -0.08   0.03     0.03  -0.10   0.04
  31   1    -0.07  -0.01  -0.01     0.01  -0.07   0.03     0.03  -0.09   0.04
  32   1    -0.01   0.00   0.03    -0.01   0.03  -0.01    -0.01   0.04  -0.02
  33   1     0.03  -0.00   0.00    -0.01   0.03  -0.01    -0.01   0.04  -0.02
  34   1    -0.02  -0.02  -0.03     0.00  -0.01   0.00     0.00  -0.01   0.00
  35   1    -0.07  -0.00   0.03    -0.01   0.04  -0.02    -0.02   0.05  -0.02
  36   1     0.06   0.05   0.07     0.02  -0.05   0.03     0.02  -0.07   0.03
  37   1     0.01   0.01   0.04    -0.02   0.10  -0.04    -0.03   0.12  -0.06
  38   6    -0.05   0.05  -0.02     0.01  -0.03   0.03     0.01  -0.06   0.01
  39   6    -0.04   0.08  -0.06     0.00   0.09   0.05    -0.01   0.03  -0.10
  40   6     0.01   0.06  -0.07     0.00   0.10   0.03    -0.01   0.06  -0.10
  41   6     0.04   0.00  -0.02    -0.00  -0.01  -0.05     0.00   0.04   0.04
  42   6     0.15  -0.05   0.03     0.00  -0.08  -0.13     0.02   0.06   0.11
  43   6     0.06   0.01  -0.01     0.01   0.05   0.09     0.01  -0.04  -0.08
  44   6    -0.04  -0.04   0.02     0.01   0.10   0.18    -0.00  -0.08  -0.14
  45   6    -0.11  -0.00   0.01    -0.00   0.04   0.06    -0.00  -0.03  -0.06
  46   6    -0.06   0.02  -0.00    -0.01  -0.09  -0.15    -0.00   0.07   0.12
  47   6     0.06  -0.02   0.01    -0.01  -0.04  -0.07    -0.01   0.03   0.05
  48   6     0.14   0.07  -0.05     0.00   0.03   0.04    -0.01  -0.02  -0.03
  49   6     0.07   0.17  -0.10    -0.00  -0.01  -0.03    -0.01   0.01   0.03
  50   7    -0.05   0.15  -0.08    -0.02  -0.14  -0.25     0.00   0.12   0.21
  51   6     0.06   0.14  -0.09     0.01   0.11   0.17    -0.01  -0.08  -0.14
  52   6     0.11   0.06  -0.04     0.00   0.04   0.06    -0.01  -0.03  -0.06
  53   6     0.09   0.02  -0.02     0.01   0.07   0.12    -0.01  -0.06  -0.09
  54   6     0.12  -0.00  -0.00    -0.00  -0.08  -0.12     0.01   0.05   0.11
  55   6     0.13   0.00  -0.01    -0.01  -0.11  -0.19     0.01   0.08   0.14
  56   7     0.15   0.05  -0.03    -0.00  -0.09  -0.15     0.01   0.06   0.10
  57   6     0.09  -0.00  -0.01    -0.00  -0.04  -0.06     0.00   0.02   0.05
  58   6     0.13  -0.01  -0.01     0.01   0.07   0.13    -0.01  -0.06  -0.09
  59   6     0.11  -0.00  -0.01     0.01   0.02   0.04     0.00  -0.02  -0.02
  60   6     0.08  -0.03   0.02     0.00  -0.03  -0.04     0.01   0.01   0.03
  61   6     0.11  -0.07   0.03     0.01   0.01   0.04     0.00  -0.02  -0.03
  62   7     0.15  -0.06   0.02     0.02   0.12   0.22    -0.01  -0.10  -0.17
  63   6     0.09  -0.13   0.07    -0.00  -0.08  -0.13     0.01   0.05   0.10
  64   6     0.10  -0.14   0.07     0.01  -0.03  -0.04     0.01   0.01   0.04
  65   7    -0.01  -0.14   0.07     0.01   0.09   0.17     0.00  -0.08  -0.12
  66   1     0.07  -0.01   0.01    -0.00  -0.05  -0.09     0.01   0.04   0.07
  67   1     0.02   0.03  -0.02     0.00   0.02   0.03     0.00  -0.02  -0.03
  68   1    -0.03   0.00   0.00     0.00   0.02   0.04    -0.00  -0.02  -0.03
  69   1     0.02  -0.03   0.02    -0.00  -0.01  -0.01    -0.00   0.00   0.01
  70   1     0.07   0.02  -0.02     0.00   0.03   0.05    -0.00  -0.02  -0.04
  71   1    -0.06   0.07  -0.04    -0.01  -0.04  -0.07    -0.00   0.03   0.05
  72   1    -0.00   0.04  -0.03     0.00   0.07   0.12    -0.01  -0.05  -0.09
  73   1     0.02   0.00  -0.00     0.00   0.05   0.08    -0.01  -0.04  -0.06
  74   1     0.03  -0.01   0.00    -0.00  -0.03  -0.05     0.00   0.02   0.05
  75   1     0.03   0.01  -0.01     0.00  -0.00  -0.00     0.00  -0.00   0.00
  76   1     0.01  -0.01   0.01    -0.00  -0.03  -0.05     0.01   0.02   0.03
  77   1     0.06  -0.03   0.01     0.00   0.03   0.06    -0.00  -0.03  -0.05
  78   1     0.01  -0.04   0.02    -0.00  -0.06  -0.10     0.01   0.04   0.08
                     25                     26                     27
                        a                      a                      a 
 Frequencies --   197.9068               198.8062               203.2816
 Red. masses --    11.6734                11.6473                12.4395
 Frc consts  --     0.0000                 0.0000                 0.0000
 IR Inten    --     0.1260                 0.8310                26.8960
 Raman Activ --     0.0000                 0.0000                 0.0000
 Depolar     --     0.0000                 0.0000                 0.0000
 Atom AN      X      Y      Z        X      Y      Z        X      Y      Z
   1   6    -0.02   0.03  -0.00     0.00  -0.02   0.02    -0.00   0.03  -0.02
   2   6     0.02  -0.08   0.06    -0.02   0.11  -0.03    -0.00   0.01  -0.01
   3   6    -0.01   0.05  -0.01     0.02  -0.04   0.03     0.01  -0.05   0.02
   4   6     0.02  -0.10   0.06    -0.02   0.11  -0.04     0.00  -0.02   0.01
   5   6     0.02  -0.10   0.06    -0.03   0.12  -0.04    -0.00   0.03  -0.02
   6   6     0.03  -0.11   0.07    -0.02   0.11  -0.03     0.01  -0.04   0.01
   7   6    -0.01   0.10  -0.03     0.04  -0.09   0.05    -0.00  -0.01   0.00
   8   6    -0.03   0.13  -0.06     0.04  -0.12   0.06    -0.02   0.06  -0.03
   9   7    -0.02   0.03  -0.00    -0.00  -0.00   0.01    -0.03   0.12  -0.05
  10   6    -0.01   0.09  -0.04     0.03  -0.09   0.04    -0.00   0.00  -0.00
  11   6     0.04  -0.11   0.05    -0.01   0.10  -0.04     0.01  -0.06   0.03
  12   6     0.03  -0.05   0.02    -0.00   0.07  -0.03    -0.01   0.01  -0.01
  13   6     0.01   0.03  -0.01     0.02  -0.02   0.01    -0.02   0.03  -0.01
  14   6     0.02  -0.04   0.02     0.00   0.02  -0.01     0.01  -0.05   0.02
  15   7     0.07  -0.19   0.09    -0.03   0.16  -0.07     0.03  -0.13   0.05
  16   6    -0.04   0.14  -0.07     0.04  -0.15   0.06    -0.00   0.01  -0.01
  17   6    -0.03   0.06  -0.02     0.00  -0.05   0.02    -0.01   0.04  -0.02
  18   6    -0.04   0.08  -0.03     0.01  -0.08   0.04     0.01  -0.01   0.00
  19   6     0.01  -0.10   0.05    -0.04   0.09  -0.04     0.01  -0.03   0.01
  20   6     0.03  -0.14   0.07    -0.05   0.14  -0.06    -0.00   0.02  -0.01
  21   7     0.02  -0.11   0.06    -0.05   0.15  -0.07    -0.02   0.09  -0.05
  22   6    -0.01  -0.01   0.01    -0.01  -0.00   0.00     0.00  -0.00   0.00
  23   6    -0.05   0.17  -0.07     0.04  -0.17   0.09     0.01  -0.02   0.01
  24   7    -0.06   0.26  -0.11     0.07  -0.26   0.13     0.01  -0.07   0.03
  25   1    -0.00  -0.01   0.01    -0.01   0.01  -0.00    -0.00   0.02  -0.01
  26   1     0.02  -0.07   0.04    -0.02   0.09  -0.03    -0.00   0.01  -0.01
  27   1     0.02  -0.06   0.04    -0.01   0.06  -0.02     0.01  -0.03   0.01
  28   1    -0.01   0.05  -0.02     0.02  -0.05   0.03     0.00  -0.02   0.01
  29   1    -0.01   0.02  -0.01     0.00  -0.01   0.01    -0.01   0.03  -0.01
  30   1    -0.01   0.06  -0.03     0.02  -0.06   0.03    -0.00   0.00  -0.00
  31   1     0.01  -0.01   0.00    -0.00   0.02  -0.01    -0.01   0.02  -0.01
  32   1    -0.01   0.03  -0.02     0.01  -0.03   0.01    -0.01   0.03  -0.01
  33   1    -0.03   0.10  -0.05     0.03  -0.10   0.04    -0.00   0.01  -0.00
  34   1    -0.02   0.06  -0.03     0.01  -0.06   0.03     0.01  -0.02   0.01
  35   1     0.01  -0.04   0.02    -0.01   0.03  -0.02     0.01  -0.03   0.01
  36   1     0.01  -0.03   0.02    -0.01   0.04  -0.02    -0.00   0.02  -0.01
  37   1     0.00  -0.02   0.01    -0.01   0.01  -0.01     0.00  -0.00   0.00
  38   6     0.02  -0.15   0.03    -0.03   0.11  -0.09     0.01  -0.02   0.02
  39   6    -0.02   0.02  -0.21    -0.01  -0.18  -0.10     0.01   0.05   0.06
  40   6    -0.02   0.10  -0.18     0.00  -0.21  -0.02     0.00   0.05   0.03
  41   6     0.01   0.11   0.11     0.01   0.04   0.14    -0.00  -0.02  -0.06
  42   6     0.02   0.03   0.05    -0.01   0.04   0.06     0.01   0.03   0.06
  43   6     0.01  -0.01  -0.02    -0.01  -0.01  -0.02     0.01   0.06   0.10
  44   6     0.01   0.02   0.04    -0.01   0.02   0.02    -0.01  -0.08  -0.14
  45   6    -0.01  -0.08  -0.14    -0.01  -0.08  -0.14     0.00   0.01   0.02
  46   6    -0.02  -0.04  -0.06     0.01  -0.03  -0.05     0.00   0.07   0.13
  47   6    -0.02  -0.05  -0.08     0.01  -0.04  -0.08    -0.01  -0.03  -0.06
  48   6    -0.01   0.06   0.10     0.02   0.06   0.09    -0.01  -0.05  -0.09
  49   6    -0.00   0.07   0.14     0.02   0.08   0.14     0.00   0.05   0.09
  50   7    -0.01   0.06   0.12     0.02   0.09   0.14     0.01   0.18   0.31
  51   6    -0.01   0.01   0.01     0.01   0.00  -0.00    -0.00  -0.00  -0.00
  52   6    -0.01  -0.10  -0.16    -0.00  -0.10  -0.17    -0.00  -0.06  -0.09
  53   6    -0.01  -0.03  -0.02     0.01  -0.01  -0.03     0.01   0.05   0.09
  54   6     0.01   0.04   0.10     0.01   0.07   0.09     0.00   0.03   0.05
  55   6     0.01  -0.04  -0.04    -0.01  -0.01  -0.05    -0.01  -0.08  -0.14
  56   7    -0.01  -0.15  -0.24    -0.02  -0.14  -0.26    -0.01  -0.15  -0.26
  57   6     0.01   0.05   0.11     0.01   0.07   0.10    -0.00  -0.03  -0.05
  58   6     0.00   0.05   0.11     0.01   0.08   0.11     0.00   0.06   0.10
  59   6     0.01   0.05   0.12     0.00   0.08   0.10    -0.01  -0.06  -0.09
  60   6     0.01  -0.06  -0.09    -0.02  -0.05  -0.10    -0.00  -0.02  -0.04
  61   6     0.00  -0.08  -0.12    -0.01  -0.07  -0.12     0.01   0.09   0.16
  62   7    -0.00  -0.02  -0.02     0.01  -0.00  -0.02     0.02   0.21   0.37
  63   6     0.01  -0.05  -0.09    -0.01  -0.05  -0.09     0.00  -0.01  -0.01
  64   6     0.02   0.05   0.11    -0.01   0.06   0.10    -0.01  -0.10  -0.18
  65   7     0.02   0.10   0.19    -0.00   0.10   0.16    -0.02  -0.21  -0.37
  66   1     0.01   0.00   0.01    -0.00   0.01   0.02     0.00   0.04   0.07
  67   1     0.00  -0.02  -0.03    -0.01  -0.02  -0.03     0.01   0.05   0.09
  68   1    -0.01  -0.05  -0.10    -0.00  -0.06  -0.10     0.00   0.01   0.02
  69   1    -0.01  -0.03  -0.05     0.00  -0.03  -0.06    -0.00  -0.03  -0.06
  70   1    -0.00   0.02   0.04     0.01   0.02   0.04    -0.00  -0.04  -0.08
  71   1    -0.00   0.02   0.03     0.01   0.02   0.04     0.00   0.04   0.07
  72   1    -0.00   0.01   0.02     0.00   0.01   0.01    -0.00  -0.00  -0.00
  73   1    -0.00   0.00   0.01     0.00   0.01   0.01     0.00   0.04   0.07
  74   1     0.00   0.04   0.08     0.01   0.05   0.08     0.00   0.03   0.05
  75   1     0.01   0.03   0.07     0.00   0.04   0.06    -0.01  -0.05  -0.08
  76   1     0.00  -0.03  -0.05    -0.01  -0.03  -0.05    -0.00  -0.03  -0.05
  77   1    -0.00  -0.01  -0.02     0.00  -0.01  -0.01     0.00   0.05   0.09
  78   1    -0.00  -0.03  -0.06    -0.01  -0.03  -0.06     0.00  -0.00  -0.00
                     28                     29                     30
                        a                      a                      a 
 Frequencies --   203.3808               258.4034               264.9901
 Red. masses --    12.4503                11.2766                10.4670
 Frc consts  --     0.0000                 0.0000                 0.0000
 IR Inten    --    21.1093                15.2652                 1.0093
 Raman Activ --     0.0000                 0.0000                 0.0000
 Depolar     --     0.0000                 0.0000                 0.0000
 Atom AN      X      Y      Z        X      Y      Z        X      Y      Z
   1   6    -0.02   0.09  -0.04    -0.09  -0.04  -0.06     0.04  -0.18   0.08
   2   6    -0.01   0.05  -0.02    -0.08  -0.07  -0.05    -0.05   0.16  -0.09
   3   6     0.04  -0.15   0.07    -0.06  -0.06  -0.05    -0.05   0.14  -0.08
   4   6     0.01  -0.05   0.02     0.09   0.03  -0.02     0.00  -0.01   0.00
   5   6    -0.03   0.11  -0.05     0.15   0.00  -0.05     0.05  -0.16   0.06
   6   6     0.02  -0.09   0.04     0.02  -0.05  -0.07     0.04  -0.15   0.05
   7   6     0.01  -0.04   0.02    -0.09  -0.00   0.05    -0.04   0.15  -0.07
   8   6    -0.04   0.16  -0.07    -0.02   0.07   0.14    -0.03   0.15  -0.06
   9   7    -0.09   0.38  -0.17     0.14   0.06   0.09     0.01   0.00   0.00
  10   6     0.00  -0.01   0.01    -0.01   0.06   0.05     0.00   0.01   0.01
  11   6     0.05  -0.18   0.08    -0.09  -0.06  -0.07     0.03  -0.14   0.06
  12   6    -0.02   0.06  -0.03    -0.11  -0.06  -0.06     0.04  -0.17   0.07
  13   6    -0.03   0.10  -0.05    -0.09  -0.05  -0.04    -0.05   0.17  -0.08
  14   6     0.04  -0.14   0.06    -0.06  -0.05  -0.05    -0.05   0.14  -0.07
  15   7     0.10  -0.37   0.17    -0.09  -0.09  -0.08    -0.01   0.00   0.00
  16   6    -0.00   0.02  -0.01     0.09   0.05  -0.03     0.01  -0.01   0.01
  17   6    -0.03   0.13  -0.06     0.15   0.03  -0.05     0.05  -0.15   0.06
  18   6     0.02  -0.06   0.02     0.02  -0.03  -0.07     0.05  -0.15   0.06
  19   6     0.02  -0.09   0.04    -0.08  -0.01   0.08    -0.04   0.15  -0.07
  20   6    -0.03   0.10  -0.05    -0.00   0.07   0.18    -0.04   0.15  -0.06
  21   7    -0.08   0.31  -0.15     0.15   0.08   0.12     0.01   0.00   0.00
  22   6     0.00  -0.00   0.00     0.01   0.07   0.08    -0.00   0.01   0.00
  23   6     0.03  -0.10   0.05    -0.08  -0.03  -0.05     0.03  -0.14   0.07
  24   7     0.07  -0.27   0.13    -0.09  -0.06  -0.06    -0.01   0.01  -0.00
  25   1    -0.02   0.07  -0.04    -0.02  -0.01  -0.02     0.02  -0.10   0.04
  26   1    -0.01   0.05  -0.03    -0.02  -0.03  -0.01    -0.02   0.09  -0.05
  27   1     0.02  -0.09   0.04    -0.00  -0.04  -0.05     0.02  -0.08   0.03
  28   1     0.01  -0.06   0.03    -0.06  -0.01   0.02    -0.02   0.08  -0.04
  29   1    -0.02   0.09  -0.04     0.08   0.04   0.05     0.01   0.00   0.00
  30   1     0.00  -0.00   0.00     0.03   0.03  -0.00     0.00   0.00   0.00
  31   1    -0.02   0.07  -0.03    -0.04  -0.02  -0.02     0.03  -0.09   0.04
  32   1    -0.03   0.09  -0.04    -0.03  -0.01  -0.01    -0.03   0.09  -0.04
  33   1    -0.00   0.02  -0.01     0.03   0.04   0.02     0.00  -0.00   0.01
  34   1     0.02  -0.06   0.03    -0.01  -0.03  -0.05     0.02  -0.08   0.03
  35   1     0.02  -0.08   0.03    -0.06  -0.01   0.03    -0.03   0.08  -0.04
  36   1    -0.02   0.07  -0.03     0.09   0.05   0.06     0.01   0.00   0.00
  37   1     0.00  -0.00   0.00     0.04   0.03   0.01     0.00   0.00   0.00
  38   6     0.01  -0.06   0.02     0.11   0.14   0.08     0.01  -0.01   0.03
  39   6    -0.00   0.04  -0.03     0.11   0.03  -0.02     0.00   0.01   0.01
  40   6    -0.01   0.06  -0.04     0.11  -0.02  -0.03     0.00   0.01  -0.01
  41   6    -0.00   0.02   0.00     0.11  -0.15  -0.01    -0.00  -0.00  -0.03
  42   6     0.00  -0.01  -0.02    -0.11   0.08  -0.02    -0.01  -0.08  -0.14
  43   6     0.00  -0.02  -0.03    -0.09   0.06  -0.03     0.01   0.08   0.15
  44   6     0.01   0.02   0.04    -0.05   0.06  -0.03     0.02   0.07   0.12
  45   6     0.00   0.00   0.01     0.10  -0.02  -0.04    -0.00  -0.01  -0.01
  46   6    -0.01  -0.02  -0.03     0.15   0.01  -0.02    -0.02  -0.08  -0.13
  47   6    -0.00   0.01   0.03     0.02   0.06  -0.03    -0.01  -0.08  -0.12
  48   6    -0.00   0.01   0.02    -0.10  -0.05   0.05     0.00   0.07   0.13
  49   6    -0.01  -0.03  -0.04    -0.02  -0.16   0.10     0.00   0.08   0.13
  50   7    -0.01  -0.06  -0.10     0.14  -0.13   0.09    -0.01  -0.00   0.00
  51   6    -0.00   0.00  -0.00     0.01  -0.11   0.02    -0.00   0.01  -0.00
  52   6     0.00   0.02   0.04    -0.08   0.04  -0.04    -0.01  -0.07  -0.12
  53   6    -0.00  -0.02  -0.02    -0.08   0.06  -0.04    -0.01  -0.09  -0.15
  54   6    -0.00  -0.02  -0.02    -0.08   0.08  -0.01     0.01   0.08   0.15
  55   6     0.01   0.02   0.05    -0.06   0.07  -0.01     0.02   0.07   0.13
  56   7     0.01   0.06   0.10    -0.09   0.08  -0.02     0.01   0.00   0.01
  57   6     0.00   0.00   0.01     0.10  -0.00  -0.02    -0.00  -0.00  -0.01
  58   6    -0.01  -0.03  -0.04     0.14   0.04  -0.01    -0.02  -0.08  -0.13
  59   6     0.00   0.00   0.02     0.02   0.08  -0.02    -0.01  -0.08  -0.12
  60   6     0.01   0.01   0.02    -0.09  -0.03   0.02     0.01   0.07   0.13
  61   6     0.00  -0.02  -0.04    -0.02  -0.14   0.06     0.01   0.08   0.12
  62   7    -0.01  -0.07  -0.12     0.13  -0.09   0.06    -0.01   0.00   0.00
  63   6     0.00   0.01   0.01    -0.00  -0.07  -0.00    -0.00   0.01  -0.01
  64   6     0.01   0.03   0.05    -0.09   0.09  -0.03    -0.00  -0.06  -0.12
  65   7     0.01   0.05   0.10    -0.08   0.11  -0.03     0.01   0.01   0.00
  66   1     0.00  -0.01  -0.02    -0.04   0.02  -0.00    -0.01  -0.04  -0.08
  67   1     0.00  -0.02  -0.03    -0.03   0.01  -0.01     0.01   0.04   0.08
  68   1     0.00   0.00   0.00     0.03  -0.04  -0.00    -0.00  -0.00  -0.01
  69   1    -0.00   0.01   0.02    -0.00   0.05  -0.03    -0.01  -0.04  -0.07
  70   1    -0.00   0.01   0.02    -0.07  -0.01   0.02     0.00   0.04   0.07
  71   1    -0.00  -0.01  -0.02     0.09  -0.07   0.04    -0.00   0.00   0.00
  72   1    -0.00  -0.00  -0.00     0.04  -0.03  -0.01    -0.00   0.00  -0.00
  73   1    -0.00  -0.01  -0.02    -0.02   0.02  -0.02    -0.01  -0.05  -0.08
  74   1    -0.00  -0.02  -0.02    -0.02   0.03   0.00     0.01   0.04   0.08
  75   1     0.00   0.01   0.02    -0.00   0.06  -0.02    -0.01  -0.04  -0.06
  76   1     0.00   0.01   0.02    -0.06  -0.01   0.01     0.01   0.04   0.07
  77   1    -0.00  -0.01  -0.03     0.08  -0.06   0.03    -0.01   0.00  -0.00
  78   1     0.00   0.00   0.01     0.04  -0.02  -0.01    -0.00   0.00  -0.00
                     31                     32                     33
                        a                      a                      a 
 Frequencies --   265.2893               266.7114               273.0926
 Red. masses --    10.4600                11.4197                11.3382
 Frc consts  --     0.0000                 0.0000                 0.0000
 IR Inten    --     0.3394                13.8063                 0.5008
 Raman Activ --     0.0000                 0.0000                 0.0000
 Depolar     --     0.0000                 0.0000                 0.0000
 Atom AN      X      Y      Z        X      Y      Z        X      Y      Z
   1   6     0.04  -0.15   0.07    -0.02  -0.02  -0.06     0.04   0.02  -0.00
   2   6    -0.04   0.15  -0.07    -0.08  -0.05  -0.10    -0.00  -0.10  -0.00
   3   6    -0.03   0.13  -0.07    -0.13  -0.04  -0.05    -0.07  -0.08   0.03
   4   6     0.00  -0.01   0.00     0.03  -0.02   0.02    -0.08   0.09  -0.03
   5   6     0.04  -0.14   0.06     0.15   0.04  -0.10     0.03  -0.07  -0.01
   6   6     0.03  -0.13   0.05     0.04   0.02  -0.13     0.05  -0.11   0.00
   7   6    -0.04   0.14  -0.06    -0.03  -0.02   0.02     0.02  -0.01  -0.04
   8   6    -0.03   0.13  -0.05     0.04   0.01   0.11     0.01   0.04  -0.06
   9   7     0.00  -0.00   0.01     0.16   0.08   0.03     0.05  -0.09  -0.02
  10   6     0.00   0.00   0.00     0.03   0.00   0.14    -0.04   0.17  -0.02
  11   6     0.03  -0.12   0.05    -0.05   0.04   0.03     0.03   0.00   0.09
  12   6     0.04  -0.15   0.06    -0.03   0.02  -0.04     0.06  -0.03   0.05
  13   6    -0.04   0.15  -0.07    -0.08  -0.06  -0.05    -0.01  -0.02  -0.01
  14   6    -0.03   0.12  -0.06    -0.11  -0.05  -0.02    -0.06  -0.01   0.02
  15   7    -0.00   0.00  -0.00    -0.13   0.02   0.02    -0.02  -0.07   0.13
  16   6     0.01  -0.01   0.00     0.04  -0.05   0.03    -0.09   0.14  -0.05
  17   6     0.04  -0.13   0.06     0.15   0.01  -0.08     0.02   0.00  -0.04
  18   6     0.03  -0.13   0.06     0.07   0.00  -0.11     0.07  -0.03  -0.02
  19   6    -0.04   0.13  -0.06     0.01   0.00  -0.02     0.09  -0.06  -0.04
  20   6    -0.04   0.13  -0.05     0.05   0.03   0.05     0.05  -0.04  -0.08
  21   7     0.00   0.00   0.01     0.15   0.07  -0.01     0.05  -0.10  -0.05
  22   6    -0.00   0.01   0.00     0.05  -0.01   0.11    -0.02   0.15  -0.05
  23   6     0.03  -0.12   0.06    -0.03  -0.00   0.01     0.02   0.05   0.04
  24   7    -0.00   0.01  -0.01    -0.14   0.00  -0.01    -0.04  -0.08   0.10
  25   1     0.02  -0.09   0.04     0.01  -0.01  -0.02     0.02   0.01  -0.01
  26   1    -0.02   0.08  -0.04    -0.03  -0.02  -0.05     0.00  -0.05  -0.01
  27   1     0.02  -0.07   0.03     0.00   0.01  -0.07     0.02  -0.05   0.01
  28   1    -0.02   0.07  -0.03    -0.04  -0.02   0.01     0.01  -0.00  -0.01
  29   1     0.00   0.00   0.00     0.08   0.04   0.03     0.01  -0.02  -0.01
  30   1     0.00   0.00  -0.00     0.03  -0.02   0.05    -0.04   0.09  -0.02
  31   1     0.02  -0.08   0.04     0.00   0.01  -0.02     0.03  -0.01   0.01
  32   1    -0.02   0.08  -0.04    -0.02  -0.03  -0.03    -0.00  -0.01  -0.02
  33   1     0.00  -0.00   0.00     0.02  -0.01   0.06    -0.04   0.09  -0.02
  34   1     0.02  -0.07   0.03     0.01  -0.01  -0.05     0.02  -0.01   0.00
  35   1    -0.02   0.07  -0.03    -0.02  -0.00  -0.00     0.04  -0.03  -0.01
  36   1     0.00   0.00   0.00     0.07   0.03   0.01     0.00  -0.02  -0.03
  37   1     0.00   0.00   0.00     0.03  -0.02   0.04    -0.04   0.09  -0.03
  38   6     0.01  -0.02   0.02     0.06  -0.03   0.26    -0.12   0.38  -0.04
  39   6     0.00  -0.00  -0.01     0.02   0.00   0.07    -0.07   0.04   0.16
  40   6     0.00   0.01  -0.01    -0.01   0.02  -0.03    -0.06  -0.15   0.12
  41   6     0.00   0.01  -0.00    -0.04   0.11  -0.27    -0.09  -0.29  -0.20
  42   6     0.01   0.10   0.17     0.03  -0.01   0.05     0.05  -0.01   0.06
  43   6    -0.01  -0.10  -0.17     0.08  -0.08   0.04    -0.02   0.02   0.00
  44   6    -0.00  -0.08  -0.14     0.12  -0.05   0.01    -0.08  -0.01   0.01
  45   6     0.00   0.00   0.00    -0.03  -0.03  -0.07    -0.07  -0.08  -0.11
  46   6     0.01   0.08   0.15    -0.17  -0.05   0.04     0.02   0.03  -0.03
  47   6     0.00   0.09   0.15    -0.09  -0.07   0.07     0.07   0.04   0.01
  48   6    -0.01  -0.09  -0.15    -0.01   0.00   0.03     0.09   0.08   0.01
  49   6    -0.01  -0.09  -0.14    -0.05   0.06  -0.03     0.06   0.09  -0.05
  50   7    -0.00  -0.00   0.01    -0.17   0.05   0.02     0.04   0.12   0.00
  51   6    -0.00  -0.01  -0.01    -0.03   0.04  -0.11     0.01  -0.09  -0.11
  52   6     0.01   0.08   0.13     0.04  -0.01  -0.01     0.03  -0.08   0.02
  53   6     0.01   0.10   0.17     0.02  -0.07   0.04     0.06  -0.01  -0.00
  54   6    -0.01  -0.10  -0.16     0.09  -0.09   0.10    -0.01   0.08   0.04
  55   6    -0.00  -0.09  -0.14     0.14  -0.05   0.06    -0.09   0.04   0.05
  56   7     0.00  -0.00  -0.01     0.15  -0.00   0.05    -0.07  -0.02   0.12
  57   6     0.00   0.00   0.00    -0.03  -0.02  -0.04    -0.08  -0.05  -0.07
  58   6     0.01   0.09   0.16    -0.17  -0.03   0.08     0.03   0.07   0.02
  59   6     0.01   0.08   0.15    -0.06  -0.06   0.11     0.04   0.09   0.06
  60   6    -0.01  -0.09  -0.15     0.04   0.00  -0.02     0.04   0.05  -0.03
  61   6    -0.01  -0.09  -0.15    -0.02   0.09  -0.10     0.03   0.02  -0.07
  62   7    -0.00   0.00   0.01    -0.17   0.09  -0.00     0.04   0.09   0.02
  63   6    -0.00  -0.00  -0.01    -0.02   0.08  -0.14    -0.01  -0.11  -0.10
  64   6     0.01   0.08   0.14     0.05   0.05   0.00     0.02  -0.07   0.08
  65   7     0.00   0.00  -0.00     0.13   0.04   0.04    -0.06  -0.04   0.13
  66   1     0.00   0.05   0.09    -0.01  -0.00   0.02     0.03   0.00   0.02
  67   1    -0.00  -0.05  -0.09     0.02  -0.04   0.01    -0.00   0.02  -0.01
  68   1     0.00   0.00   0.00    -0.01   0.02  -0.07    -0.02  -0.06  -0.06
  69   1     0.00   0.05   0.08    -0.02  -0.04   0.04     0.02   0.01   0.01
  70   1    -0.01  -0.05  -0.08     0.02   0.00   0.01     0.04   0.03   0.01
[...]
 Frc consts  --     0.0000                 0.0000                 0.0000
 IR Inten    --    71.4673               222.4996                40.6559
 Raman Activ --     0.0000                 0.0000                 0.0000
 Depolar     --     0.0000                 0.0000                 0.0000
 Atom AN      X      Y      Z        X      Y      Z        X      Y      Z
   1   6     0.02   0.07   0.14     0.00   0.00   0.01     0.00   0.00   0.01
   2   6     0.24   0.04  -0.03     0.01   0.00  -0.00     0.01   0.00  -0.00
   3   6     0.00  -0.00  -0.01     0.00  -0.00  -0.00     0.00  -0.00  -0.00
   4   6     0.00   0.00   0.00     0.00   0.00   0.00    -0.00   0.00   0.00
   5   6     0.00   0.00   0.00     0.00   0.00   0.00     0.00   0.00   0.00
   6   6     0.00  -0.00  -0.00     0.01   0.00  -0.00     0.01   0.00  -0.00
   7   6     0.00   0.01   0.02    -0.00  -0.00  -0.00    -0.00  -0.00  -0.00
   8   6     0.00   0.00   0.00    -0.00   0.00   0.00    -0.00  -0.00   0.00
   9   7     0.00  -0.00  -0.00     0.00  -0.00  -0.00     0.00  -0.00  -0.00
  10   6    -0.00   0.00   0.00    -0.00   0.00   0.00    -0.00  -0.00  -0.00
  11   6     0.00   0.00   0.00     0.00  -0.00  -0.00     0.00  -0.00  -0.00
  12   6    -0.00  -0.00  -0.00    -0.00  -0.00  -0.00    -0.00  -0.00  -0.01
  13   6    -0.00  -0.00   0.00    -0.00  -0.00   0.00    -0.01  -0.00   0.00
  14   6     0.00   0.00   0.00    -0.00   0.00   0.00    -0.00   0.00   0.00
  15   7     0.00   0.00   0.00     0.00   0.00   0.00     0.00   0.00   0.00
  16   6    -0.00  -0.00  -0.00    -0.00  -0.00   0.00    -0.00  -0.00   0.00
  17   6     0.00   0.00   0.00    -0.00  -0.00  -0.00    -0.00  -0.00  -0.00
  18   6     0.01   0.00  -0.00    -0.14  -0.02   0.05    -0.15  -0.02   0.05
  19   6    -0.00  -0.00  -0.00     0.01   0.06   0.13     0.01   0.06   0.13
  20   6    -0.00   0.00   0.00     0.01   0.00  -0.00     0.01   0.00  -0.00
  21   7    -0.00  -0.00  -0.00     0.00  -0.00  -0.00     0.00  -0.00  -0.00
  22   6     0.00   0.00   0.00    -0.00   0.00   0.00    -0.00   0.00   0.00
  23   6    -0.01   0.00   0.00    -0.00  -0.00   0.00    -0.00  -0.00  -0.00
  24   7    -0.00  -0.00  -0.00    -0.00  -0.00  -0.00    -0.00  -0.00  -0.00
  25   1    -0.09  -0.23  -0.43    -0.00  -0.01  -0.02    -0.00  -0.01  -0.02
  26   1    -0.79  -0.15   0.07    -0.02  -0.00   0.00    -0.02  -0.00   0.00
  27   1    -0.01  -0.00   0.00    -0.02  -0.00   0.01    -0.02  -0.00   0.01
  28   1    -0.00  -0.02  -0.05     0.00   0.00   0.01     0.00   0.01   0.01
  29   1    -0.00  -0.00   0.00    -0.00   0.00   0.00    -0.00   0.00   0.00
  30   1    -0.00  -0.00  -0.00    -0.00   0.00   0.00     0.00   0.00   0.00
  31   1     0.00   0.00   0.00     0.00   0.01   0.01     0.00   0.01   0.02
  32   1     0.00   0.00  -0.00     0.02   0.00  -0.00     0.02   0.01  -0.00
  33   1     0.00   0.00  -0.00     0.01   0.00  -0.00     0.01   0.00  -0.00
  34   1    -0.04  -0.00   0.02     0.46   0.05  -0.17     0.47   0.05  -0.17
  35   1     0.00   0.00   0.01    -0.00  -0.19  -0.41    -0.00  -0.19  -0.41
  36   1    -0.00  -0.00  -0.00     0.00  -0.00  -0.00     0.00  -0.00  -0.00
  37   1    -0.00  -0.01  -0.01    -0.00  -0.00  -0.01    -0.00  -0.00  -0.01
  38   6    -0.00   0.00   0.00    -0.00  -0.00   0.00    -0.00  -0.00   0.00
  39   6     0.00  -0.00  -0.00     0.00  -0.00  -0.00     0.00   0.00  -0.00
  40   6    -0.00  -0.00  -0.00     0.00   0.00  -0.00    -0.00  -0.00   0.00
  41   6     0.00   0.00  -0.00    -0.00  -0.00   0.00     0.00   0.00  -0.00
  42   6    -0.00   0.00  -0.00    -0.00   0.00  -0.00     0.00  -0.01   0.00
  43   6    -0.00  -0.00   0.00    -0.01   0.00   0.00     0.01  -0.00  -0.00
  44   6    -0.00  -0.00   0.00    -0.00  -0.00   0.00     0.00   0.00  -0.00
  45   6    -0.00  -0.00   0.00    -0.00  -0.00   0.00     0.00   0.00  -0.00
  46   6     0.00  -0.00   0.00    -0.00   0.01  -0.00     0.00  -0.00   0.00
  47   6     0.00   0.00  -0.00    -0.15  -0.02   0.02     0.15   0.02  -0.02
  48   6     0.00   0.00  -0.00    -0.00  -0.12   0.07     0.00   0.12  -0.07
  49   6    -0.00  -0.00   0.00     0.01  -0.00   0.00    -0.01   0.00  -0.00
  50   7    -0.00  -0.00   0.00     0.00   0.00  -0.00    -0.00  -0.00   0.00
  51   6    -0.00   0.00  -0.00    -0.00  -0.00   0.00     0.00   0.00  -0.00
  52   6     0.00   0.00  -0.00    -0.00   0.00   0.00     0.00  -0.00   0.00
  53   6    -0.00   0.00  -0.00     0.00  -0.00   0.00    -0.00   0.00  -0.00
  54   6    -0.00   0.00   0.00     0.01  -0.00  -0.00    -0.01   0.00   0.00
  55   6    -0.00  -0.00   0.00     0.00   0.00  -0.00    -0.00  -0.00   0.00
  56   7     0.00  -0.00   0.00    -0.00   0.00  -0.00     0.00  -0.00   0.00
  57   6     0.00   0.00   0.00     0.00  -0.00   0.00     0.00   0.00  -0.00
  58   6     0.00  -0.00   0.00    -0.00  -0.00   0.00    -0.00   0.00  -0.00
  59   6     0.00   0.00  -0.00     0.00   0.00  -0.00    -0.01  -0.00   0.00
  60   6    -0.00  -0.00   0.00    -0.00   0.00  -0.00    -0.00  -0.00   0.00
  61   6     0.00  -0.00   0.00    -0.00  -0.00   0.00     0.00   0.00  -0.00
  62   7     0.00   0.00  -0.00     0.00   0.00  -0.00    -0.00  -0.00   0.00
  63   6     0.00  -0.00   0.00    -0.00  -0.00   0.00     0.00  -0.00   0.00
  64   6     0.00   0.00  -0.00     0.00   0.00  -0.00    -0.00  -0.00   0.00
  65   7     0.00  -0.00  -0.00     0.00  -0.00   0.00    -0.00   0.00  -0.00
  66   1     0.00  -0.00   0.00     0.00  -0.01   0.01    -0.00   0.02  -0.01
  67   1     0.00  -0.00  -0.00     0.02  -0.00  -0.00    -0.02   0.00   0.00
  68   1     0.00   0.00  -0.00     0.01  -0.00  -0.00    -0.01   0.00   0.00
  69   1    -0.00  -0.00   0.00     0.49   0.09  -0.07    -0.48  -0.09   0.07
  70   1    -0.00  -0.00   0.00     0.02   0.39  -0.23    -0.02  -0.39   0.23
  71   1     0.00   0.00  -0.00    -0.00  -0.00  -0.00     0.00   0.00   0.00
  72   1     0.00  -0.00   0.00    -0.00   0.01  -0.00     0.00  -0.01   0.00
  73   1     0.00  -0.01   0.00    -0.00   0.02  -0.01     0.00  -0.01   0.01
  74   1     0.01  -0.00  -0.00    -0.02   0.00   0.00     0.02  -0.00  -0.00
  75   1    -0.01  -0.00   0.00    -0.01  -0.00   0.00     0.02   0.00  -0.00
  76   1     0.00   0.02  -0.01    -0.00  -0.00   0.00     0.00   0.01  -0.00
  77   1    -0.00  -0.00   0.00    -0.00  -0.00   0.00     0.00   0.00  -0.00
  78   1    -0.00   0.00  -0.00    -0.00  -0.00   0.00    -0.00   0.00  -0.00
                    223                    224                    225
                        a                      a                      a 
 Frequencies --  3171.8336              3172.4645              3350.2639
 Red. masses --     1.9591                 1.9578                 1.8914
 Frc consts  --     0.0000                 0.0000                 0.0000
 IR Inten    --    48.8009                55.0900               171.3202
 Raman Activ --     0.0000                 0.0000                 0.0000
 Depolar     --     0.0000                 0.0000                 0.0000
 Atom AN      X      Y      Z        X      Y      Z        X      Y      Z
   1   6    -0.00  -0.00  -0.01    -0.00  -0.00  -0.00     0.00  -0.00  -0.00
   2   6    -0.01  -0.00   0.00    -0.00  -0.00   0.00    -0.00   0.00   0.00
   3   6     0.00   0.00   0.00    -0.00   0.00   0.00    -0.00   0.00   0.00
   4   6     0.00   0.00   0.00    -0.00   0.00   0.00    -0.00  -0.00  -0.00
   5   6    -0.00  -0.00  -0.01    -0.00  -0.00  -0.00     0.00  -0.00  -0.00
   6   6    -0.21  -0.02   0.07    -0.04  -0.00   0.01    -0.00   0.00   0.00
   7   6     0.01   0.08   0.17     0.00   0.01   0.03    -0.00   0.00   0.00
   8   6     0.01   0.00  -0.00     0.00   0.00  -0.00     0.00   0.00  -0.00
   9   7     0.00  -0.00  -0.00     0.00  -0.00  -0.00     0.02  -0.01  -0.03
  10   6    -0.00   0.00   0.00    -0.00   0.00   0.00     0.00  -0.00  -0.00
  11   6    -0.00  -0.00  -0.00    -0.00   0.00   0.00    -0.00   0.00   0.00
  12   6     0.00   0.00   0.00     0.00   0.00   0.00    -0.00  -0.00  -0.00
  13   6     0.00   0.00  -0.00     0.00   0.00  -0.00    -0.00  -0.00  -0.00
  14   6     0.00  -0.00  -0.00     0.00  -0.00  -0.00    -0.00   0.00   0.00
  15   7    -0.00  -0.00  -0.00    -0.00  -0.00  -0.00    -0.00  -0.00  -0.00
  16   6    -0.00   0.00   0.00     0.00   0.00  -0.00     0.00  -0.00  -0.00
  17   6    -0.00  -0.00  -0.00    -0.00  -0.00   0.00     0.00   0.00  -0.00
  18   6    -0.01  -0.00   0.00    -0.00   0.00   0.00     0.00   0.00   0.00
  19   6     0.00   0.00   0.01     0.00   0.00   0.00    -0.00  -0.00   0.00
  20   6     0.00   0.00   0.00    -0.00  -0.00  -0.00     0.00  -0.00  -0.00
  21   7     0.00  -0.00  -0.00     0.00  -0.00  -0.00     0.00  -0.00  -0.01
  22   6    -0.00   0.00   0.00    -0.00  -0.00  -0.00     0.00  -0.00  -0.00
  23   6     0.00  -0.00  -0.00     0.00  -0.00  -0.00    -0.00  -0.00  -0.00
  24   7     0.00   0.00   0.00     0.00   0.00  -0.00     0.00   0.00   0.00
  25   1     0.00   0.01   0.02     0.00   0.00   0.00     0.00   0.00   0.00
  26   1     0.02   0.00  -0.00     0.01   0.00  -0.00     0.00   0.00  -0.00
  27   1     0.69   0.05  -0.24     0.12   0.01  -0.04     0.00   0.00   0.00
  28   1    -0.01  -0.24  -0.54    -0.00  -0.04  -0.09    -0.00   0.00   0.00
  29   1     0.00  -0.00  -0.00     0.00  -0.00  -0.00    -0.07   0.03   0.10
  30   1    -0.00  -0.01  -0.01    -0.00  -0.00  -0.00     0.00   0.00   0.00
  31   1    -0.00  -0.01  -0.01    -0.00  -0.00  -0.00     0.00   0.00  -0.00
  32   1    -0.01  -0.00   0.00    -0.00  -0.00   0.00    -0.00  -0.00  -0.00
  33   1     0.00   0.00  -0.00    -0.00  -0.00   0.00    -0.00  -0.00   0.00
  34   1     0.03   0.00  -0.01     0.00   0.00  -0.00    -0.00  -0.00   0.00
  35   1    -0.00  -0.01  -0.02    -0.00  -0.00  -0.00    -0.00   0.00   0.00
  36   1    -0.00   0.00   0.00    -0.00   0.00   0.00    -0.02   0.01   0.02
  37   1    -0.00   0.00   0.00     0.00   0.00   0.00     0.00   0.00   0.00
  38   6    -0.00   0.00   0.00    -0.00  -0.00   0.00     0.00  -0.00  -0.00
  39   6    -0.00  -0.00  -0.00     0.00   0.00  -0.00     0.00  -0.00  -0.00
  40   6     0.00  -0.00  -0.00    -0.00   0.00  -0.00    -0.00  -0.00   0.00
  41   6    -0.00   0.00   0.00    -0.00  -0.00   0.00     0.00   0.00  -0.00
  42   6    -0.00   0.00  -0.00     0.00  -0.00   0.00    -0.00   0.00  -0.00
  43   6    -0.00  -0.00   0.00     0.00   0.00  -0.00    -0.00   0.00  -0.00
  44   6    -0.00  -0.00   0.00     0.00   0.00  -0.00    -0.00  -0.00   0.00
  45   6     0.00   0.00  -0.00     0.00  -0.00   0.00     0.00   0.00  -0.00
  46   6     0.00  -0.00   0.00    -0.00   0.00  -0.00     0.00   0.00  -0.00
  47   6     0.00   0.00  -0.00    -0.01  -0.00   0.00    -0.00  -0.00   0.00
  48   6     0.00   0.00  -0.00     0.00  -0.00   0.00    -0.00  -0.00   0.00
  49   6    -0.00   0.00  -0.00     0.00  -0.00   0.00     0.00   0.00  -0.00
  50   7    -0.00  -0.00   0.00     0.00   0.00  -0.00     0.03   0.04  -0.02
  51   6     0.00   0.00  -0.00    -0.00   0.00  -0.00     0.00   0.00  -0.00
  52   6    -0.00  -0.00   0.00     0.00   0.00  -0.00    -0.00   0.00  -0.00
  53   6     0.00   0.00  -0.00    -0.00   0.00  -0.00     0.00   0.00  -0.00
  54   6    -0.00  -0.00   0.00    -0.01   0.00   0.00     0.00  -0.00   0.00
  55   6    -0.00   0.00   0.00    -0.00  -0.00   0.00    -0.00  -0.00   0.00
  56   7     0.00   0.00  -0.00     0.00  -0.00   0.00     0.00  -0.00   0.00
  57   6     0.00   0.00  -0.00    -0.00  -0.00   0.00    -0.00   0.00  -0.00
  58   6     0.00  -0.00   0.00    -0.00   0.01  -0.00     0.00   0.00  -0.00
  59   6     0.04   0.01  -0.01    -0.22  -0.03   0.03    -0.00  -0.00   0.00
  60   6     0.00   0.03  -0.02     0.00  -0.15   0.09    -0.00  -0.00   0.00
  61   6    -0.00   0.00   0.00     0.01  -0.00  -0.00     0.00   0.00  -0.00
  62   7    -0.00  -0.00   0.00     0.00   0.00  -0.00     0.16   0.17  -0.11
  63   6     0.00   0.00  -0.00    -0.00  -0.00   0.00     0.00   0.00  -0.00
  64   6    -0.00  -0.00   0.00    -0.00  -0.00   0.00    -0.00  -0.00   0.00
  65   7     0.00  -0.00  -0.00    -0.00   0.00  -0.00    -0.00   0.00  -0.00
  66   1     0.00  -0.00   0.00    -0.00   0.01  -0.01     0.00  -0.00   0.00
  67   1     0.00  -0.00  -0.00    -0.01   0.00   0.00     0.00   0.00  -0.00
  68   1    -0.00   0.00   0.00    -0.00  -0.00   0.00    -0.00   0.00   0.00
  69   1    -0.01  -0.00   0.00     0.02   0.00  -0.00    -0.00  -0.00   0.00
  70   1    -0.00  -0.01   0.00     0.00   0.01  -0.01    -0.00  -0.00   0.00
  71   1     0.00   0.00  -0.00    -0.00  -0.00   0.00    -0.13  -0.13   0.08
  72   1     0.00  -0.00   0.00    -0.00  -0.00   0.00     0.00  -0.00   0.00
  73   1     0.00  -0.00   0.00     0.00  -0.01   0.01     0.00  -0.00   0.00
  74   1     0.00  -0.00  -0.00     0.02  -0.00  -0.00     0.00  -0.00  -0.00
  75   1    -0.13  -0.02   0.02     0.73   0.12  -0.12    -0.00  -0.00   0.00
  76   1    -0.00  -0.09   0.05     0.02   0.49  -0.28    -0.00  -0.00   0.00
  77   1     0.00   0.00   0.00     0.00   0.00  -0.00    -0.59  -0.61   0.39
  78   1     0.00  -0.00   0.00    -0.00   0.01  -0.01     0.00  -0.00   0.00
                    226                    227                    228
                        a                      a                      a 
 Frequencies --  3350.4671              3358.8900              3359.1102
 Red. masses --     1.8921                 1.8869                 1.8869
 Frc consts  --     0.0000                 0.0000                 0.0000
 IR Inten    --    51.2600                69.1621                11.6254
 Raman Activ --     0.0000                 0.0000                 0.0000
 Depolar     --     0.0000                 0.0000                 0.0000
 Atom AN      X      Y      Z        X      Y      Z        X      Y      Z
   1   6    -0.00  -0.00   0.00     0.00   0.00  -0.00    -0.00  -0.00  -0.00
   2   6    -0.00  -0.00  -0.00    -0.00   0.00   0.00    -0.00  -0.00  -0.00
   3   6     0.00  -0.00  -0.00    -0.00  -0.00   0.00     0.00   0.00  -0.00
   4   6     0.00   0.00   0.00     0.00   0.00   0.00     0.00  -0.00  -0.00
   5   6    -0.00   0.00   0.00    -0.00  -0.00  -0.00     0.00   0.00   0.00
   6   6     0.00  -0.00  -0.00    -0.00   0.00   0.00     0.00  -0.00  -0.00
   7   6     0.00  -0.00  -0.00    -0.00   0.00   0.00     0.00  -0.00  -0.00
   8   6    -0.00  -0.00   0.00     0.00   0.00   0.00    -0.00  -0.00  -0.00
   9   7    -0.14   0.05   0.20     0.00  -0.00  -0.00    -0.03   0.01   0.04
  10   6    -0.00   0.00   0.00     0.00   0.00   0.00     0.00  -0.00  -0.00
  11   6     0.00  -0.00  -0.00    -0.00   0.00   0.00     0.00  -0.00  -0.00
  12   6     0.00   0.00   0.00    -0.00  -0.00   0.00     0.00   0.00  -0.00
  13   6     0.00   0.00   0.00     0.00  -0.00  -0.00     0.00   0.00   0.00
  14   6     0.00  -0.00  -0.00     0.00  -0.00  -0.00    -0.00   0.00   0.00
  15   7     0.00   0.00   0.00    -0.00  -0.00  -0.00     0.00   0.00   0.00
  16   6    -0.00   0.00   0.00    -0.00   0.00   0.00     0.00  -0.00  -0.00
  17   6    -0.00  -0.00   0.00    -0.00   0.00   0.00     0.00  -0.00  -0.00
  18   6     0.00  -0.00  -0.00     0.00  -0.00  -0.00    -0.00   0.00   0.00
  19   6     0.00  -0.00  -0.00     0.00  -0.00  -0.00    -0.00   0.00   0.00
  20   6    -0.00   0.00   0.00    -0.00  -0.00   0.00     0.00   0.00  -0.00
  21   7    -0.03   0.01   0.05    -0.01   0.00   0.02     0.14  -0.05  -0.20
  22   6    -0.00   0.00   0.00    -0.00   0.00   0.00     0.00   0.00  -0.00
  23   6     0.00   0.00   0.00     0.00  -0.00  -0.00    -0.00   0.00   0.00
  24   7    -0.00  -0.00  -0.00     0.00   0.00   0.00    -0.00  -0.00  -0.00
  25   1    -0.00  -0.00  -0.00     0.00   0.00   0.00    -0.00  -0.00  -0.00
  26   1    -0.00  -0.00   0.00     0.00   0.00   0.00    -0.00  -0.00  -0.00
  27   1     0.00   0.00  -0.00     0.00   0.00  -0.00    -0.00  -0.00   0.00
  28   1     0.00  -0.00  -0.00    -0.00  -0.00  -0.00    -0.00   0.00   0.00
  29   1     0.54  -0.20  -0.73    -0.01   0.00   0.02     0.12  -0.04  -0.16
  30   1    -0.00  -0.00  -0.00    -0.00  -0.00  -0.00     0.00   0.00   0.00
  31   1    -0.00  -0.00  -0.00    -0.00  -0.00  -0.00     0.00   0.00   0.00
  32   1    -0.00  -0.00   0.00    -0.00  -0.00   0.00     0.00   0.00  -0.00
  33   1     0.00   0.00  -0.00     0.00   0.00  -0.00    -0.00  -0.00   0.00
  34   1     0.00   0.00  -0.00     0.00   0.00  -0.00    -0.00  -0.00   0.00
  35   1     0.00  -0.00  -0.00     0.00  -0.00  -0.00    -0.00   0.00   0.00
  36   1     0.12  -0.04  -0.16     0.04  -0.02  -0.06    -0.54   0.20   0.74
  37   1    -0.00  -0.00  -0.00    -0.00  -0.00  -0.00     0.00   0.00   0.00
  38   6    -0.00  -0.00   0.00    -0.00  -0.00   0.00    -0.00  -0.00   0.00
  39   6     0.00   0.00  -0.00    -0.00  -0.00   0.00     0.00   0.00  -0.00
  40   6    -0.00  -0.00   0.00    -0.00  -0.00   0.00    -0.00  -0.00  -0.00
  41   6     0.00   0.00  -0.00     0.00   0.00  -0.00     0.00  -0.00  -0.00
  42   6    -0.00   0.00  -0.00    -0.00   0.00   0.00    -0.00   0.00   0.00
  43   6    -0.00   0.00  -0.00    -0.00   0.00  -0.00    -0.00   0.00  -0.00
  44   6    -0.00  -0.00   0.00     0.00   0.00  -0.00     0.00   0.00  -0.00
  45   6     0.00   0.00  -0.00    -0.00  -0.00   0.00    -0.00  -0.00   0.00
  46   6     0.00   0.00  -0.00    -0.00  -0.00   0.00    -0.00  -0.00   0.00
  47   6    -0.00  -0.00   0.00     0.00   0.00  -0.00     0.00   0.00  -0.00
  48   6    -0.00  -0.00   0.00     0.00   0.00  -0.00     0.00   0.00  -0.00
  49   6     0.00   0.00  -0.00    -0.00  -0.00   0.00    -0.00  -0.00   0.00
  50   7     0.00   0.00  -0.00    -0.16  -0.17   0.10    -0.01  -0.01   0.01
  51   6     0.00   0.00  -0.00    -0.00  -0.00   0.00    -0.00  -0.00   0.00
  52   6    -0.00   0.00  -0.00     0.00   0.00  -0.00     0.00   0.00  -0.00
  53   6     0.00   0.00  -0.00     0.00  -0.00   0.00     0.00  -0.00   0.00
  54   6     0.00  -0.00   0.00     0.00  -0.00   0.00     0.00  -0.00   0.00
  55   6    -0.00  -0.00   0.00    -0.00  -0.00   0.00    -0.00  -0.00   0.00
  56   7     0.00  -0.00   0.00     0.00  -0.00   0.00     0.00  -0.00   0.00
  57   6    -0.00   0.00  -0.00    -0.00  -0.00   0.00    -0.00  -0.00   0.00
  58   6     0.00   0.00  -0.00    -0.00   0.00  -0.00    -0.00   0.00  -0.00
  59   6    -0.00  -0.00   0.00    -0.00  -0.00   0.00    -0.00  -0.00   0.00
  60   6    -0.00  -0.00   0.00    -0.00  -0.00   0.00    -0.00  -0.00   0.00
  61   6     0.00   0.00  -0.00     0.00  -0.00   0.00     0.00  -0.00   0.00
  62   7     0.02   0.02  -0.01     0.03   0.04  -0.02     0.00   0.00  -0.00
  63   6     0.00   0.00  -0.00    -0.00  -0.00   0.00    -0.00  -0.00   0.00
  64   6    -0.00  -0.00   0.00    -0.00  -0.00   0.00    -0.00  -0.00   0.00
  65   7    -0.00   0.00  -0.00    -0.00   0.00  -0.00    -0.00   0.00  -0.00
  66   1     0.00  -0.00   0.00    -0.00   0.00  -0.00    -0.00   0.00  -0.00
  67   1     0.00   0.00  -0.00    -0.00   0.00  -0.00    -0.00   0.00  -0.00
  68   1    -0.00   0.00  -0.00     0.00  -0.00  -0.00     0.00  -0.00  -0.00
  69   1    -0.00  -0.00   0.00     0.00   0.00  -0.00     0.00   0.00  -0.00
  70   1    -0.00   0.00   0.00     0.00   0.00  -0.00     0.00   0.00  -0.00
  71   1    -0.01  -0.02   0.01     0.59   0.62  -0.39     0.05   0.05  -0.03
  72   1     0.00  -0.00   0.00    -0.00   0.00  -0.00    -0.00   0.00  -0.00
  73   1     0.00  -0.00   0.00     0.00  -0.00   0.00    -0.00   0.00  -0.00
  74   1     0.00  -0.00   0.00     0.00  -0.00   0.00    -0.00  -0.00   0.00
  75   1    -0.00  -0.00   0.00     0.00   0.00  -0.00    -0.00   0.00  -0.00
  76   1    -0.00  -0.00   0.00     0.00   0.00  -0.00     0.00  -0.00   0.00
  77   1    -0.08  -0.08   0.05    -0.13  -0.13   0.08    -0.01  -0.01   0.01
  78   1     0.00  -0.00   0.00    -0.00   0.00  -0.00    -0.00   0.00  -0.00
