      -----------------------------------------------------------      
     |                   =====================                   |     
     |                           x T B                           |     
     |                   =====================                   |     
     |                         S. Grimme                         |     
     |          Mulliken Center for Theoretical Chemistry        |     
     |                    University of Bonn                     |     
      -----------------------------------------------------------      

   * xtb version 6.4.1 (bd6e46d) compiled by 'conda@4901f00b25ba' on 2021-06-10

   xtb is free software: you can redistribute it and/or modify it under
   the terms of the GNU Lesser General Public License as published by
   the Free Software Foundation, either version 3 of the License, or
   (at your option) any later version.
   
   xtb is distributed in the hope that it will be useful,
   but WITHOUT ANY WARRANTY; without even the implied warranty of
   MERCHANTABILITY or FITNESS FOR A PARTICULAR PURPOSE.  See the
   GNU Lesser General Public License for more details.
   
   Cite this work as:
   * C. Bannwarth, E. Caldeweyher, S. Ehlert, A. Hansen, P. Pracht,
     J. Seibert, S. Spicher, S. Grimme, WIREs Comput. Mol. Sci., 2020, 11,
     e01493. DOI: 10.1002/wcms.1493
   
   for GFN2-xTB:
   * C. Bannwarth, S. Ehlert and S. Grimme., J. Chem. Theory Comput., 2019,
     15, 1652-1671. DOI: 10.1021/acs.jctc.8b01176
   for GFN1-xTB:
   * S. Grimme, C. Bannwarth, P. Shushkov, J. Chem. Theory Comput., 2017,
     13, 1989-2009. DOI: 10.1021/acs.jctc.7b00118
   for GFN0-xTB:
   * P. Pracht, E. Caldeweyher, S. Ehlert, S. Grimme, ChemRxiv, 2019, preprint.
     DOI: 10.26434/chemrxiv.8326202.v1
   for GFN-FF:
   * S. Spicher and S. Grimme, Angew. Chem. Int. Ed., 2020, 59, 15665-15673.
     DOI: 10.1002/anie.202004239
   
   for DFT-D4:
   * E. Caldeweyher, C. Bannwarth and S. Grimme, J. Chem. Phys., 2017,
     147, 034112. DOI: 10.1063/1.4993215
   * E. Caldeweyher, S. Ehlert, A. Hansen, H. Neugebauer, S. Spicher,
     C. Bannwarth and S. Grimme, J. Chem. Phys., 2019, 150, 154122.
     DOI: 10.1063/1.5090222
   * E. Caldeweyher, J.-M. Mewes, S. Ehlert and S. Grimme, Phys. Chem. Chem. Phys.
     2020, 22, 8499-8512. DOI: 10.1039/D0CP00502A
   
   for sTDA-xTB:
   * S. Grimme and C. Bannwarth, J. Chem. Phys., 2016, 145, 054103.
     DOI: 10.1063/1.4959605
   
   in the mass-spec context:
   * V. Asgeirsson, C. Bauer and S. Grimme, Chem. Sci., 2017, 8, 4879.
     DOI: 10.1039/c7sc00601b
   * J. Koopman and S. Grimme, ACS Omega 2019, 4, 12, 15120-15133.
     DOI: 10.1021/acsomega.9b02011
   
   for metadynamics refer to:
   * S. Grimme, J. Chem. Theory Comput., 2019, 155, 2847-2862
     DOI: 10.1021/acs.jctc.9b00143
   
   for SPH calculations refer to:
   * S. Spicher and S. Grimme, J. Chem. Theory Comput., 2021, 17, 1701-1714
     DOI: 10.1021/acs.jctc.0c01306
   
   with help from (in alphabetical order)
   P. Atkinson, C. Bannwarth, F. Bohle, G. Brandenburg, E. Caldeweyher
   M. Checinski, S. Dohm, S. Ehlert, S. Ehrlich, I. Gerasimov, J. Koopman
   C. Lavigne, S. Lehtola, F. März, M. Müller, F. Musil, H. Neugebauer
   J. Pisarek, C. Plett, P. Pracht, J. Seibert, P. Shushkov, S. Spicher
   M. Stahn, M. Steiner, T. Strunk, J. Stückrath, T. Rose, and J. Unsleber
   
 * started run on 2021/11/18 at 17:16:53.065     

           -------------------------------------------------
          |                Calculation Setup                |
           -------------------------------------------------

          program call               : /home/jeff/miniconda3/bin/xtb input_structure_1.xyz --gfn 2 --ohess normal --parallel 1 --etemp 300 --chrg 0 --uhf 0 -I det_control.in
          hostname                   : jelfscompute1
          coordinate file            : input_structure_1.xyz
          omp threads                :                     1
          number of atoms            :                    78
          number of electrons        :                   242
          charge                     :                     0
          spin                       :                   0.0
          first test random number   :      0.36823486656373

   ID    Z sym.   atoms
    1    6 C      1-8, 10-14, 16-20, 22, 23, 38-49, 51-55, 57-61, 63, 64
    2    7 N      9, 15, 21, 24, 50, 56, 62, 65
    3    1 H      25-37, 66-78

           -------------------------------------------------
          |                 G F N 2 - x T B                 |
           -------------------------------------------------

        Reference                      10.1021/acs.jctc.8b01176
      * Hamiltonian:
        H0-scaling (s, p, d)           1.850000    2.230000    2.230000
        zeta-weighting                 0.500000
      * Dispersion:
        s8                             2.700000
        a1                             0.520000
        a2                             5.000000
        s9                             5.000000
      * Repulsion:
        kExp                           1.500000    1.000000
        rExp                           1.000000
      * Coulomb:
        alpha                          2.000000
        third order                    shell-resolved
        anisotropic                    true
        a3                             3.000000
        a5                             4.000000
        cn-shift                       1.200000
        cn-exp                         4.000000
        max-rad                        5.000000


          ...................................................
          :                      SETUP                      :
          :.................................................:
          :  # basis functions                 234          :
          :  # atomic orbitals                 234          :
          :  # shells                          130          :
          :  # electrons                       242          :
          :  max. iterations                   250          :
          :  Hamiltonian                  GFN2-xTB          :
          :  restarted?                      false          :
          :  GBSA solvation                  false          :
          :  PC potential                    false          :
          :  electronic temp.          300.0000000     K    :
          :  accuracy                    1.0000000          :
          :  -> integral cutoff          0.2500000E+02      :
          :  -> integral neglect         0.1000000E-07      :
          :  -> SCF convergence          0.1000000E-05 Eh   :
          :  -> wf. convergence          0.1000000E-03 e    :
          :  Broyden damping             0.4000000          :
          ...................................................

 iter      E             dE          RMSdq      gap      omega  full diag
   1   -132.6129641 -0.132613E+03  0.490E+00    0.84       0.0  T
   2   -132.7972297 -0.184266E+00  0.309E+00    0.88       1.0  T
   3   -132.7457819  0.514477E-01  0.135E+00    0.88       1.0  T
   4   -132.7349447  0.108372E-01  0.913E-01    0.60       1.0  T
   5   -132.8050632 -0.701185E-01  0.406E-01    0.87       1.0  T
   6   -132.8235014 -0.184382E-01  0.178E-01    0.76       1.0  T
   7   -132.8268289 -0.332750E-02  0.814E-02    0.81       1.0  T
   8   -132.8270807 -0.251836E-03  0.626E-02    0.76       1.0  T
   9   -132.8275105 -0.429745E-03  0.245E-02    0.78       1.0  T
  10   -132.8275561 -0.456725E-04  0.117E-02    0.79       1.0  T
  11   -132.8275616 -0.550150E-05  0.675E-03    0.78       1.7  T
  12   -132.8275667 -0.510774E-05  0.198E-03    0.78       5.7  T
  13   -132.8275670 -0.301132E-06  0.953E-04    0.78      11.9  T
  14   -132.8275671 -0.723790E-07  0.448E-04    0.78      25.3  T

   *** convergence criteria satisfied after 14 iterations ***

         #    Occupation            Energy/Eh            Energy/eV
      -------------------------------------------------------------
         1        2.0000           -0.6895900             -18.7647
       ...           ...                  ...                  ...
       115        2.0000           -0.3671272              -9.9900
       116        2.0000           -0.3545934              -9.6490
       117        2.0000           -0.3526723              -9.5967
       118        2.0000           -0.3478138              -9.4645
       119        2.0000           -0.3441886              -9.3658
       120        2.0000           -0.3426322              -9.3235
       121        2.0000           -0.3387225              -9.2171 (HOMO)
       122        0.0000           -0.3099237              -8.4335 (LUMO)
       123                         -0.3080215              -8.3817
       124                         -0.2926677              -7.9639
       125                         -0.2924702              -7.9585
       126                         -0.2699340              -7.3453
       ...                                ...                  ...
       234                          1.6073869              43.7392
      -------------------------------------------------------------
                  HL-Gap            0.0287988 Eh            0.7837 eV
             Fermi-level           -0.3243740 Eh           -8.8267 eV

 SCC (total)                   0 d,  0 h,  0 min,  0.255 sec
 SCC setup                      ...        0 min,  0.001 sec (  0.501%)
 Dispersion                     ...        0 min,  0.003 sec (  1.107%)
 classical contributions        ...        0 min,  0.001 sec (  0.208%)
 integral evaluation            ...        0 min,  0.023 sec (  8.910%)
 iterations                     ...        0 min,  0.147 sec ( 57.519%)
 molecular gradient             ...        0 min,  0.080 sec ( 31.364%)
 printout                       ...        0 min,  0.001 sec (  0.387%)

         :::::::::::::::::::::::::::::::::::::::::::::::::::::
         ::                     SUMMARY                     ::
         :::::::::::::::::::::::::::::::::::::::::::::::::::::
         :: total energy            -130.383207653706 Eh    ::
         :: gradient norm              0.463671877029 Eh/a0 ::
         :: HOMO-LUMO gap              0.783655783992 eV    ::
         ::.................................................::
         :: SCC energy              -132.827567107970 Eh    ::
         :: -> isotropic ES            0.075935938284 Eh    ::
         :: -> anisotropic ES          0.001505951447 Eh    ::
         :: -> anisotropic XC          0.097701651312 Eh    ::
         :: -> dispersion             -0.102051141254 Eh    ::
         :: repulsion energy           2.444285244669 Eh    ::
         :: add. restraining           0.000000000000 Eh    ::
         :: total charge              -0.000000000059 e     ::
         :::::::::::::::::::::::::::::::::::::::::::::::::::::

      ----------------------------------------------------------- 
     |                   =====================                   |
     |                        A N C O P T                        |
     |                   =====================                   |
     |               Approximate Normal Coordinate               |
     |                Rational Function Optimizer                |
      ----------------------------------------------------------- 

          ...................................................
          :                      SETUP                      :
          :.................................................:
          :   optimization level            normal          :
          :   max. optcycles                   234          :
          :   ANC micro-cycles                  20          :
          :   degrees of freedom               228          :
          :.................................................:
          :   RF solver                   davidson          :
          :   write xtbopt.log                true          :
          :   linear?                        false          :
          :   energy convergence         0.5000000E-05 Eh   :
          :   grad. convergence          0.1000000E-02 Eh/α :
          :   maximium RF displ.         1.0000000          :
          :   Hlow (freq-cutoff)         0.1000000E-01      :
          :   Hmax (freq-cutoff)         5.0000000          :
          :   S6 in model hess.         20.0000000          :
          ...................................................

generating ANC from model Hessian ...
Using Lindh-Hessian (1995)
 Shifting diagonal of input Hessian by    9.9904362980143598E-003
 Lowest  eigenvalues of input Hessian
    0.000000    0.000000    0.000000    0.000000    0.000000    0.000000
    0.010000    0.010003    0.010042    0.010071    0.010294    0.010447
    0.010967    0.010992    0.011522    0.011943    0.012083    0.012595
 Highest eigenvalues
    2.258682    2.271063    2.282971    2.351484    2.357551    2.828982


........................................................................
.............................. CYCLE    1 ..............................
........................................................................
   1   -132.8275671 -0.132828E+03  0.203E-04    0.78       0.0  T
   2   -132.8275671  0.403008E-08  0.223E-04    0.78      50.7  T
   3   -132.8275671 -0.451757E-08  0.133E-04    0.78      85.1  T
     SCC iter.                  ...        0 min,  0.030 sec
     gradient                   ...        0 min,  0.087 sec
 * total energy  :  -130.3832077 Eh     change       -0.1432369E-07 Eh
   gradient norm :     0.4636701 Eh/α   predicted     0.0000000E+00 (-100.00%)
   displ. norm   :     0.5001680 α      lambda       -0.1739182E+00
   maximum displ.:     0.1160813 α      in ANC's #111, #143, #34, ...

........................................................................
.............................. CYCLE    2 ..............................
........................................................................
   1   -132.8714471 -0.132871E+03  0.374E-01    0.92       0.0  T
   2   -132.8718804 -0.433351E-03  0.225E-01    0.93       1.0  T
   3   -132.8689897  0.289073E-02  0.194E-01    0.93       1.0  T
   4   -132.8709898 -0.200013E-02  0.110E-01    0.93       1.0  T
   5   -132.8722871 -0.129730E-02  0.373E-02    0.93       1.0  T
   6   -132.8724277 -0.140643E-03  0.174E-02    0.93       1.0  T
   7   -132.8724580 -0.302593E-04  0.870E-03    0.93       1.3  T
   8   -132.8724623 -0.425218E-05  0.557E-03    0.93       2.0  T
   9   -132.8724654 -0.311744E-05  0.243E-03    0.93       4.7  T
  10   -132.8724659 -0.543880E-06  0.785E-04    0.93      14.4  T
  11   -132.8724659 -0.319915E-07  0.423E-04    0.93      26.7  T
     SCC iter.                  ...        0 min,  0.100 sec
     gradient                   ...        0 min,  0.074 sec
 * total energy  :  -130.5168637 Eh     change       -0.1336561E+00 Eh
   gradient norm :     0.2288149 Eh/α   predicted    -0.1087992E+00 ( -18.60%)
   displ. norm   :     0.5832969 α      lambda       -0.9570584E-01
   maximum displ.:     0.1800956 α      in ANC's #34, #44, #111, ...

........................................................................
.............................. CYCLE    3 ..............................
........................................................................
   1   -132.9339563 -0.132934E+03  0.372E-01    0.95       0.0  T
   2   -132.9343390 -0.382747E-03  0.218E-01    0.95       1.0  T
   3   -132.9321163  0.222277E-02  0.177E-01    0.95       1.0  T
   4   -132.9338534 -0.173718E-02  0.801E-02    0.95       1.0  T
   5   -132.9346176 -0.764181E-03  0.332E-02    0.95       1.0  T
   6   -132.9347556 -0.138037E-03  0.137E-02    0.95       1.0  T
   7   -132.9347730 -0.173114E-04  0.664E-03    0.95       1.7  T
   8   -132.9347745 -0.158414E-05  0.431E-03    0.95       2.6  T
   9   -132.9347761 -0.160785E-05  0.191E-03    0.95       5.9  T
  10   -132.9347765 -0.347257E-06  0.635E-04    0.95      17.8  T
  11   -132.9347765 -0.264062E-07  0.322E-04    0.95      35.2  T
     SCC iter.                  ...        0 min,  0.100 sec
     gradient                   ...        0 min,  0.075 sec
 * total energy  :  -130.5778131 Eh     change       -0.6094934E-01 Eh
   gradient norm :     0.0750915 Eh/α   predicted    -0.6413419E-01 (   5.23%)
   displ. norm   :     0.6952250 α      lambda       -0.3478069E-01
   maximum displ.:     0.3133399 α      in ANC's #34, #44, #37, ...

........................................................................
.............................. CYCLE    4 ..............................
........................................................................
   1   -132.9664366 -0.132966E+03  0.271E-01    1.03       0.0  T
   2   -132.9664443 -0.771936E-05  0.162E-01    1.03       1.0  T
   3   -132.9649689  0.147540E-02  0.992E-02    1.03       1.0  T
   4   -132.9663755 -0.140664E-02  0.332E-02    1.03       1.0  T
   5   -132.9665111 -0.135535E-03  0.919E-03    1.03       1.2  T
   6   -132.9665182 -0.710648E-05  0.435E-03    1.03       2.6  T
   7   -132.9665189 -0.744166E-06  0.264E-03    1.03       4.3  T
   8   -132.9665194 -0.535408E-06  0.127E-03    1.03       8.9  T
   9   -132.9665196 -0.182884E-06  0.400E-04    1.03      28.3  T
  10   -132.9665196 -0.109043E-07  0.224E-04    1.03      50.6  T
     SCC iter.                  ...        0 min,  0.092 sec
     gradient                   ...        0 min,  0.074 sec
 * total energy  :  -130.6070746 Eh     change       -0.2926152E-01 Eh
   gradient norm :     0.0528709 Eh/α   predicted    -0.2579586E-01 ( -11.84%)
   displ. norm   :     0.8096289 α      lambda       -0.2938216E-01
   maximum displ.:     0.3684554 α      in ANC's #34, #12, #44, ...

........................................................................
.............................. CYCLE    5 ..............................
........................................................................
   1   -133.0080025 -0.133008E+03  0.268E-01    1.12       0.0  T
   2   -133.0080375 -0.349975E-04  0.157E-01    1.12       1.0  T
   3   -133.0074531  0.584439E-03  0.671E-02    1.13       1.0  T
   4   -133.0079648 -0.511758E-03  0.281E-02    1.12       1.0  T
   5   -133.0080753 -0.110466E-03  0.479E-03    1.12       2.4  T
   6   -133.0080754 -0.862485E-07  0.366E-03    1.12       3.1  T
   7   -133.0080766 -0.118273E-05  0.193E-03    1.12       5.9  T
   8   -133.0080769 -0.311182E-06  0.787E-04    1.12      14.4  T
   9   -133.0080769 -0.649351E-07  0.270E-04    1.12      42.0  T
     SCC iter.                  ...        0 min,  0.082 sec
     gradient                   ...        0 min,  0.075 sec
 * total energy  :  -130.6322460 Eh     change       -0.2517141E-01 Eh
   gradient norm :     0.0418556 Eh/α   predicted    -0.2432142E-01 (  -3.38%)
   displ. norm   :     0.8277176 α      lambda       -0.2316428E-01
   maximum displ.:     0.3754010 α      in ANC's #34, #12, #22, ...

........................................................................
.............................. CYCLE    6 ..............................
........................................................................
   1   -133.0439462 -0.133044E+03  0.255E-01    1.21       0.0  T
   2   -133.0439947 -0.484306E-04  0.149E-01    1.20       1.0  T
   3   -133.0437371  0.257529E-03  0.530E-02    1.21       1.0  T
   4   -133.0439795 -0.242359E-03  0.181E-02    1.20       1.0  T
   5   -133.0440212 -0.416627E-04  0.499E-03    1.20       2.3  T
   6   -133.0440234 -0.223358E-05  0.247E-03    1.20       4.6  T
   7   -133.0440236 -0.214561E-06  0.148E-03    1.20       7.7  T
   8   -133.0440238 -0.162875E-06  0.509E-04    1.20      22.2  T
   9   -133.0440238 -0.250850E-07  0.193E-04    1.20      58.6  T
     SCC iter.                  ...        0 min,  0.082 sec
     gradient                   ...        0 min,  0.074 sec
 * total energy  :  -130.6522789 Eh     change       -0.2003292E-01 Eh
   gradient norm :     0.0354250 Eh/α   predicted    -0.1951727E-01 (  -2.57%)
   displ. norm   :     0.8414265 α      lambda       -0.1895948E-01
   maximum displ.:     0.3500865 α      in ANC's #12, #34, #22, ...

........................................................................
.............................. CYCLE    7 ..............................
........................................................................
   1   -133.0750135 -0.133075E+03  0.251E-01    1.26       0.0  T
   2   -133.0750552 -0.416930E-04  0.147E-01    1.25       1.0  T
   3   -133.0747879  0.267305E-03  0.490E-02    1.26       1.0  T
   4   -133.0750614 -0.273457E-03  0.147E-02    1.25       1.0  T
   5   -133.0750856 -0.242230E-04  0.476E-03    1.25       2.4  T
   6   -133.0750867 -0.107905E-05  0.270E-03    1.25       4.2  T
   7   -133.0750870 -0.381737E-06  0.144E-03    1.25       7.9  T
   8   -133.0750873 -0.226269E-06  0.532E-04    1.25      21.3  T
   9   -133.0750873 -0.186953E-07  0.176E-04    1.25      64.3  T
     SCC iter.                  ...        0 min,  0.082 sec
     gradient                   ...        0 min,  0.075 sec
 * total energy  :  -130.6680505 Eh     change       -0.1577162E-01 Eh
   gradient norm :     0.0347001 Eh/α   predicted    -0.1619140E-01 (   2.66%)
   displ. norm   :     0.8314536 α      lambda       -0.1506794E-01
   maximum displ.:     0.3962843 α      in ANC's #12, #34, #22, ...

........................................................................
.............................. CYCLE    8 ..............................
........................................................................
   1   -133.0889337 -0.133089E+03  0.250E-01    1.29       0.0  T
   2   -133.0889720 -0.382956E-04  0.145E-01    1.28       1.0  T
   3   -133.0887967  0.175294E-03  0.495E-02    1.29       1.0  T
   4   -133.0889875 -0.190801E-03  0.104E-02    1.28       1.1  T
   5   -133.0889976 -0.100932E-04  0.440E-03    1.28       2.6  T
   6   -133.0889985 -0.944758E-06  0.257E-03    1.28       4.4  T
   7   -133.0889990 -0.489007E-06  0.104E-03    1.28      10.9  T
   8   -133.0889991 -0.113832E-06  0.391E-04    1.28      29.0  T
   9   -133.0889991 -0.108943E-07  0.187E-04    1.28      60.5  T
     SCC iter.                  ...        0 min,  0.082 sec
     gradient                   ...        0 min,  0.075 sec
 * total energy  :  -130.6798254 Eh     change       -0.1177485E-01 Eh
   gradient norm :     0.0281800 Eh/α   predicted    -0.1274234E-01 (   8.22%)
   displ. norm   :     0.7988603 α      lambda       -0.1087184E-01
   maximum displ.:     0.4120265 α      in ANC's #12, #13, #22, ...

........................................................................
.............................. CYCLE    9 ..............................
........................................................................
   1   -133.0986257 -0.133099E+03  0.234E-01    1.30       0.0  T
   2   -133.0986497 -0.239731E-04  0.137E-01    1.30       1.0  T
   3   -133.0985019  0.147770E-03  0.365E-02    1.30       1.0  T
   4   -133.0986522 -0.150337E-03  0.108E-02    1.30       1.0  T
   5   -133.0986668 -0.145728E-04  0.356E-03    1.30       3.2  T
   6   -133.0986670 -0.174696E-06  0.207E-03    1.30       5.5  T
   7   -133.0986673 -0.303041E-06  0.114E-03    1.30       9.9  T
   8   -133.0986675 -0.178728E-06  0.372E-04    1.30      30.4  T
   9   -133.0986675 -0.668231E-08  0.147E-04    1.30      76.8  T
     SCC iter.                  ...        0 min,  0.082 sec
     gradient                   ...        0 min,  0.075 sec
 * total energy  :  -130.6882243 Eh     change       -0.8398887E-02 Eh
   gradient norm :     0.0247736 Eh/α   predicted    -0.8905004E-02 (   6.03%)
   displ. norm   :     0.8165307 α      lambda       -0.9375490E-02
   maximum displ.:     0.4315711 α      in ANC's #12, #16, #13, ...

........................................................................
.............................. CYCLE   10 ..............................
........................................................................
   1   -133.1007829 -0.133101E+03  0.272E-01    1.30       0.0  T
   2   -133.1007982 -0.152908E-04  0.161E-01    1.29       1.0  T
   3   -133.1003169  0.481309E-03  0.640E-02    1.30       1.0  T
   4   -133.1008169 -0.500064E-03  0.128E-02    1.30       1.0  T
   5   -133.1008301 -0.131448E-04  0.520E-03    1.30       2.2  T
   6   -133.1008308 -0.726993E-06  0.359E-03    1.30       3.2  T
   7   -133.1008318 -0.996185E-06  0.138E-03    1.30       8.2  T
   8   -133.1008319 -0.134466E-06  0.416E-04    1.30      27.2  T
   9   -133.1008319 -0.894730E-08  0.189E-04    1.30      59.8  T
     SCC iter.                  ...        0 min,  0.082 sec
     gradient                   ...        0 min,  0.074 sec
 * total energy  :  -130.6933278 Eh     change       -0.5103536E-02 Eh
   gradient norm :     0.0376621 Eh/α   predicted    -0.7813182E-02 (  53.09%)
   displ. norm   :     0.6289271 α      lambda       -0.7600748E-02
   maximum displ.:     0.3683869 α      in ANC's #12, #13, #10, ...

........................................................................
.............................. CYCLE   11 ..............................
........................................................................
   1   -133.1127362 -0.133113E+03  0.207E-01    1.29       0.0  T
   2   -133.1127437 -0.750523E-05  0.122E-01    1.29       1.0  T
   3   -133.1123500  0.393717E-03  0.590E-02    1.29       1.0  T
   4   -133.1127555 -0.405503E-03  0.108E-02    1.29       1.1  T
   5   -133.1127669 -0.114301E-04  0.393E-03    1.29       2.9  T
   6   -133.1127675 -0.575107E-06  0.252E-03    1.29       4.5  T
   7   -133.1127678 -0.319071E-06  0.112E-03    1.29      10.1  T
   8   -133.1127679 -0.827180E-07  0.485E-04    1.29      23.3  T
   9   -133.1127679 -0.249838E-07  0.208E-04    1.29      54.4  T
     SCC iter.                  ...        0 min,  0.082 sec
     gradient                   ...        0 min,  0.075 sec
 * total energy  :  -130.6986941 Eh     change       -0.5366293E-02 Eh
   gradient norm :     0.0242833 Eh/α   predicted    -0.5303612E-02 (  -1.17%)
   displ. norm   :     0.6498234 α      lambda       -0.5140002E-02
   maximum displ.:     0.3428017 α      in ANC's #12, #13, #8, ...

........................................................................
.............................. CYCLE   12 ..............................
........................................................................
   1   -133.1168192 -0.133117E+03  0.191E-01    1.30       0.0  T
   2   -133.1168205 -0.132714E-05  0.113E-01    1.30       1.0  T
   3   -133.1163705  0.449963E-03  0.680E-02    1.30       1.0  T
   4   -133.1168362 -0.465621E-03  0.925E-03    1.30       1.2  T
   5   -133.1168453 -0.909730E-05  0.345E-03    1.30       3.3  T
   6   -133.1168460 -0.751174E-06  0.162E-03    1.30       7.0  T
   7   -133.1168461 -0.877038E-07  0.872E-04    1.30      13.0  T
   8   -133.1168462 -0.652309E-07  0.287E-04    1.30      39.4  T
     SCC iter.                  ...        0 min,  0.073 sec
     gradient                   ...        0 min,  0.074 sec
 * total energy  :  -130.7025380 Eh     change       -0.3843904E-02 Eh
   gradient norm :     0.0231837 Eh/α   predicted    -0.3655237E-02 (  -4.91%)
   displ. norm   :     0.7123193 α      lambda       -0.5184767E-02
   maximum displ.:     0.4234518 α      in ANC's #12, #13, #8, ...

........................................................................
.............................. CYCLE   13 ..............................
........................................................................
   1   -133.1246009 -0.133125E+03  0.191E-01    1.30       0.0  T
   2   -133.1246085 -0.763565E-05  0.112E-01    1.30       1.0  T
   3   -133.1243213  0.287195E-03  0.467E-02    1.30       1.0  T
   4   -133.1246221 -0.300795E-03  0.771E-03    1.30       1.5  T
   5   -133.1246274 -0.529425E-05  0.391E-03    1.30       2.9  T
   6   -133.1246283 -0.935700E-06  0.199E-03    1.30       5.7  T
   7   -133.1246285 -0.220493E-06  0.885E-04    1.30      12.8  T
   8   -133.1246286 -0.867777E-07  0.271E-04    1.30      41.8  T
     SCC iter.                  ...        0 min,  0.073 sec
     gradient                   ...        0 min,  0.074 sec
 * total energy  :  -130.7066985 Eh     change       -0.4160532E-02 Eh
   gradient norm :     0.0252063 Eh/α   predicted    -0.3907758E-02 (  -6.08%)
   displ. norm   :     0.7257585 α      lambda       -0.5175889E-02
   maximum displ.:     0.3774358 α      in ANC's #12, #13, #8, ...

........................................................................
.............................. CYCLE   14 ..............................
........................................................................
   1   -133.1295801 -0.133130E+03  0.209E-01    1.31       0.0  T
   2   -133.1295927 -0.126004E-04  0.123E-01    1.31       1.0  T
   3   -133.1295022  0.905164E-04  0.314E-02    1.31       1.0  T
   4   -133.1295959 -0.936866E-04  0.831E-03    1.31       1.4  T
   5   -133.1296017 -0.575852E-05  0.345E-03    1.31       3.3  T
   6   -133.1296021 -0.490714E-06  0.204E-03    1.31       5.6  T
   7   -133.1296024 -0.263120E-06  0.877E-04    1.31      12.9  T
   8   -133.1296025 -0.814352E-07  0.222E-04    1.31      51.0  T
     SCC iter.                  ...        0 min,  0.073 sec
     gradient                   ...        0 min,  0.074 sec
 * total energy  :  -130.7106842 Eh     change       -0.3985690E-02 Eh
   gradient norm :     0.0216408 Eh/α   predicted    -0.3951084E-02 (  -0.87%)
   displ. norm   :     0.7431406 α      lambda       -0.4588879E-02
   maximum displ.:     0.3877641 α      in ANC's #12, #13, #8, ...

........................................................................
.............................. CYCLE   15 ..............................
........................................................................
   1   -133.1306606 -0.133131E+03  0.222E-01    1.33       0.0  T
   2   -133.1306734 -0.128745E-04  0.130E-01    1.32       1.0  T
   3   -133.1304765  0.196943E-03  0.421E-02    1.33       1.0  T
   4   -133.1306817 -0.205188E-03  0.880E-03    1.33       1.3  T
   5   -133.1306887 -0.700269E-05  0.375E-03    1.32       3.0  T
   6   -133.1306894 -0.678949E-06  0.236E-03    1.32       4.8  T
   7   -133.1306898 -0.393346E-06  0.987E-04    1.32      11.5  T
   8   -133.1306898 -0.807271E-07  0.275E-04    1.32      41.2  T
     SCC iter.                  ...        0 min,  0.073 sec
     gradient                   ...        0 min,  0.074 sec
 * total energy  :  -130.7141853 Eh     change       -0.3501100E-02 Eh
   gradient norm :     0.0193981 Eh/α   predicted    -0.3561574E-02 (   1.73%)
   displ. norm   :     0.7098666 α      lambda       -0.3419263E-02
   maximum displ.:     0.3648396 α      in ANC's #12, #13, #8, ...

........................................................................
.............................. CYCLE   16 ..............................
........................................................................
   1   -133.1320052 -0.133132E+03  0.193E-01    1.34       0.0  T
   2   -133.1320167 -0.114735E-04  0.113E-01    1.34       1.0  T
   3   -133.1318087  0.208015E-03  0.381E-02    1.34       1.0  T
   4   -133.1320230 -0.214331E-03  0.828E-03    1.34       1.4  T
   5   -133.1320302 -0.722165E-05  0.373E-03    1.34       3.0  T
   6   -133.1320312 -0.949006E-06  0.191E-03    1.34       5.9  T
   7   -133.1320313 -0.157145E-06  0.113E-03    1.34      10.0  T
   8   -133.1320314 -0.127294E-06  0.266E-04    1.34      42.5  T
   9   -133.1320314 -0.545597E-08  0.130E-04    1.34      86.9  T
     SCC iter.                  ...        0 min,  0.081 sec
     gradient                   ...        0 min,  0.074 sec
 * total energy  :  -130.7166751 Eh     change       -0.2489733E-02 Eh
   gradient norm :     0.0229944 Eh/α   predicted    -0.2571133E-02 (   3.27%)
   displ. norm   :     0.7146938 α      lambda       -0.3368574E-02
   maximum displ.:     0.3795722 α      in ANC's #12, #13, #8, ...

........................................................................
.............................. CYCLE   17 ..............................
........................................................................
   1   -133.1233807 -0.133123E+03  0.180E-01    1.35       0.0  T
   2   -133.1233939 -0.131689E-04  0.105E-01    1.35       1.0  T
   3   -133.1233290  0.648652E-04  0.252E-02    1.35       1.0  T
   4   -133.1233930 -0.639773E-04  0.882E-03    1.35       1.3  T
   5   -133.1234013 -0.833973E-05  0.358E-03    1.35       3.2  T
   6   -133.1234019 -0.586542E-06  0.197E-03    1.35       5.7  T
   7   -133.1234021 -0.185356E-06  0.721E-04    1.35      15.7  T
   8   -133.1234021 -0.438309E-07  0.236E-04    1.35      48.0  T
     SCC iter.                  ...        0 min,  0.074 sec
     gradient                   ...        0 min,  0.074 sec
 * total energy  :  -130.7185789 Eh     change       -0.1903802E-02 Eh
   gradient norm :     0.0242514 Eh/α   predicted    -0.2544604E-02 (  33.66%)
   displ. norm   :     0.5034470 α      lambda       -0.2411587E-02
   maximum displ.:     0.2140185 α      in ANC's #12, #13, #8, ...

........................................................................
.............................. CYCLE   18 ..............................
........................................................................
   1   -133.1370130 -0.133137E+03  0.129E-01    1.35       0.0  T
   2   -133.1370153 -0.230872E-05  0.754E-02    1.35       1.0  T
   3   -133.1368082  0.207139E-03  0.394E-02    1.35       1.0  T
   4   -133.1370223 -0.214155E-03  0.739E-03    1.35       1.5  T
   5   -133.1370297 -0.736802E-05  0.257E-03    1.35       4.4  T
   6   -133.1370300 -0.330565E-06  0.143E-03    1.35       7.9  T
   7   -133.1370301 -0.770992E-07  0.554E-04    1.35      20.4  T
   8   -133.1370301 -0.359183E-07  0.176E-04    1.35      64.4  T
     SCC iter.                  ...        0 min,  0.073 sec
     gradient                   ...        0 min,  0.074 sec
 * total energy  :  -130.7198007 Eh     change       -0.1221817E-02 Eh
   gradient norm :     0.0272595 Eh/α   predicted    -0.1511413E-02 (  23.70%)
   displ. norm   :     0.4982746 α      lambda       -0.2398109E-02
   maximum displ.:     0.2173226 α      in ANC's #12, #8, #13, ...

........................................................................
.............................. CYCLE   19 ..............................
........................................................................
   1   -133.1446425 -0.133145E+03  0.131E-01    1.36       0.0  T
   2   -133.1446500 -0.750733E-05  0.775E-02    1.36       1.0  T
   3   -133.1445771  0.729233E-04  0.232E-02    1.36       1.0  T
   4   -133.1446491 -0.719982E-04  0.741E-03    1.36       1.5  T
   5   -133.1446560 -0.687063E-05  0.239E-03    1.36       4.7  T
   6   -133.1446562 -0.204105E-06  0.149E-03    1.36       7.6  T
   7   -133.1446563 -0.138562E-06  0.775E-04    1.36      14.6  T
   8   -133.1446564 -0.553484E-07  0.235E-04    1.36      48.3  T
     SCC iter.                  ...        0 min,  0.073 sec
     gradient                   ...        0 min,  0.074 sec
 * total energy  :  -130.7207544 Eh     change       -0.9536841E-03 Eh
   gradient norm :     0.0284890 Eh/α   predicted    -0.1496758E-02 (  56.94%)
   displ. norm   :     0.3990794 α      lambda       -0.1748655E-02
   maximum displ.:     0.2338648 α      in ANC's #12, #7, #8, ...

........................................................................
.............................. CYCLE   20 ..............................
........................................................................
   1   -133.1377120 -0.133138E+03  0.104E-01    1.36       0.0  T
   2   -133.1377186 -0.658939E-05  0.611E-02    1.36       1.0  T
   3   -133.1376808  0.378650E-04  0.183E-02    1.36       1.0  T
   4   -133.1377201 -0.393084E-04  0.515E-03    1.36       2.2  T
   5   -133.1377230 -0.294797E-05  0.191E-03    1.36       5.9  T
   6   -133.1377231 -0.114746E-06  0.116E-03    1.36       9.8  T
   7   -133.1377232 -0.588907E-07  0.491E-04    1.36      23.1  T
   8   -133.1377232 -0.246720E-07  0.180E-04    1.36      62.8  T
     SCC iter.                  ...        0 min,  0.073 sec
     gradient                   ...        0 min,  0.074 sec
 * total energy  :  -130.7214713 Eh     change       -0.7169201E-03 Eh
   gradient norm :     0.0214089 Eh/α   predicted    -0.1013583E-02 (  41.38%)
   displ. norm   :     0.3470779 α      lambda       -0.1664015E-02
   maximum displ.:     0.1884894 α      in ANC's #8, #7, #13, ...
 * RMSD in coord.:     1.2060519 α      energy gain  -0.3382636E+00 Eh

generating ANC from model Hessian ...
Using Lindh-Hessian (1995)
 Shifting diagonal of input Hessian by    9.9880244408006597E-003
 Lowest  eigenvalues of input Hessian
    0.000000    0.000000    0.000000    0.000000    0.000000    0.000000
    0.010000    0.010006    0.010009    0.010090    0.010276    0.010863
    0.010887    0.011536    0.011778    0.011964    0.012326    0.012447
 Highest eigenvalues
    2.222041    2.241136    2.243582    2.254973    2.392945    2.914751


........................................................................
.............................. CYCLE   21 ..............................
........................................................................
   1   -133.1441493 -0.133144E+03  0.902E-02    1.36       0.0  T
   2   -133.1441516 -0.236491E-05  0.532E-02    1.36       1.0  T
   3   -133.1439987  0.152888E-03  0.336E-02    1.36       1.0  T
   4   -133.1441564 -0.157680E-03  0.833E-03    1.36       1.4  T
   5   -133.1441628 -0.637428E-05  0.251E-03    1.36       4.5  T
   6   -133.1441630 -0.262597E-06  0.131E-03    1.36       8.6  T
   7   -133.1441631 -0.369021E-07  0.571E-04    1.36      19.8  T
   8   -133.1441631 -0.248150E-07  0.182E-04    1.36      62.2  T
     SCC iter.                  ...        0 min,  0.073 sec
     gradient                   ...        0 min,  0.074 sec
 * total energy  :  -130.7217532 Eh     change       -0.2819258E-03 Eh
   gradient norm :     0.0281602 Eh/α   predicted     0.0000000E+00 (-100.00%)
   displ. norm   :     0.1638387 α      lambda       -0.1334306E-02
   maximum displ.:     0.1042921 α      in ANC's #7, #6, #5, ...

........................................................................
.............................. CYCLE   22 ..............................
........................................................................
   1   -133.1465014 -0.133147E+03  0.575E-02    1.36       0.0  T
   2   -133.1465020 -0.571937E-06  0.342E-02    1.36       1.0  T
   3   -133.1464550  0.470113E-04  0.194E-02    1.36       1.0  T
   4   -133.1465031 -0.480814E-04  0.423E-03    1.36       2.7  T
   5   -133.1465048 -0.169315E-05  0.128E-03    1.36       8.9  T
   6   -133.1465049 -0.764661E-07  0.656E-04    1.36      17.3  T
   7   -133.1465049 -0.103621E-07  0.320E-04    1.36      35.4  T
     SCC iter.                  ...        0 min,  0.064 sec
     gradient                   ...        0 min,  0.074 sec
 * total energy  :  -130.7226823 Eh     change       -0.9291120E-03 Eh
   gradient norm :     0.0098486 Eh/α   predicted    -0.6851122E-03 ( -26.26%)
   displ. norm   :     0.2641336 α      lambda       -0.7188898E-03
   maximum displ.:     0.1857821 α      in ANC's #7, #6, #5, ...

........................................................................
.............................. CYCLE   23 ..............................
........................................................................
   1   -133.1484554 -0.133148E+03  0.680E-02    1.37       0.0  T
   2   -133.1484565 -0.111602E-05  0.401E-02    1.36       1.0  T
   3   -133.1484181  0.384513E-04  0.170E-02    1.37       1.0  T
   4   -133.1484570 -0.389119E-04  0.427E-03    1.37       2.7  T
   5   -133.1484589 -0.188974E-05  0.145E-03    1.37       7.8  T
   6   -133.1484590 -0.102144E-06  0.660E-04    1.37      17.2  T
   7   -133.1484590 -0.556292E-08  0.350E-04    1.37      32.3  T
     SCC iter.                  ...        0 min,  0.066 sec
     gradient                   ...        0 min,  0.074 sec
 * total energy  :  -130.7231406 Eh     change       -0.4582813E-03 Eh
   gradient norm :     0.0080373 Eh/α   predicted    -0.3845226E-03 ( -16.09%)
   displ. norm   :     0.2733265 α      lambda       -0.4448934E-03
   maximum displ.:     0.1909140 α      in ANC's #7, #6, #5, ...

........................................................................
.............................. CYCLE   24 ..............................
........................................................................
   1   -133.1484034 -0.133148E+03  0.657E-02    1.37       0.0  T
   2   -133.1484041 -0.693294E-06  0.387E-02    1.37       1.0  T
   3   -133.1483850  0.190389E-04  0.125E-02    1.37       1.0  T
   4   -133.1484045 -0.195069E-04  0.260E-03    1.37       4.4  T
   5   -133.1484051 -0.602062E-06  0.103E-03    1.37      11.0  T
   6   -133.1484052 -0.395112E-07  0.540E-04    1.37      21.0  T
   7   -133.1484052 -0.819492E-08  0.269E-04    1.37      42.2  T
     SCC iter.                  ...        0 min,  0.064 sec
     gradient                   ...        0 min,  0.074 sec
 * total energy  :  -130.7234959 Eh     change       -0.3552901E-03 Eh
   gradient norm :     0.0118614 Eh/α   predicted    -0.2390654E-03 ( -32.71%)
   displ. norm   :     0.3706553 α      lambda       -0.5793775E-03
   maximum displ.:     0.2493664 α      in ANC's #7, #6, #5, ...

........................................................................
.............................. CYCLE   25 ..............................
........................................................................
   1   -133.1482594 -0.133148E+03  0.738E-02    1.38       0.0  T
   2   -133.1482603 -0.829978E-06  0.433E-02    1.38       1.0  T
   3   -133.1482466  0.136973E-04  0.105E-02    1.38       1.1  T
   4   -133.1482609 -0.142952E-04  0.209E-03    1.38       5.4  T
   5   -133.1482612 -0.331367E-06  0.103E-03    1.38      11.0  T
   6   -133.1482612 -0.451181E-07  0.559E-04    1.38      20.3  T
   7   -133.1482613 -0.196627E-07  0.246E-04    1.38      46.1  T
     SCC iter.                  ...        0 min,  0.064 sec
     gradient                   ...        0 min,  0.074 sec
 * total energy  :  -130.7240163 Eh     change       -0.5204238E-03 Eh
   gradient norm :     0.0098494 Eh/α   predicted    -0.3294883E-03 ( -36.69%)
   displ. norm   :     0.5259087 α      lambda       -0.7807889E-03
   maximum displ.:     0.3508076 α      in ANC's #7, #6, #5, ...

........................................................................
.............................. CYCLE   26 ..............................
........................................................................
   1   -133.1482737 -0.133148E+03  0.100E-01    1.39       0.0  T
   2   -133.1482751 -0.138905E-05  0.587E-02    1.39       1.0  T
   3   -133.1482583  0.168244E-04  0.118E-02    1.39       1.0  T
   4   -133.1482762 -0.179120E-04  0.228E-03    1.39       5.0  T
   5   -133.1482765 -0.312485E-06  0.129E-03    1.39       8.8  T
   6   -133.1482765 -0.716933E-07  0.705E-04    1.39      16.1  T
   7   -133.1482766 -0.521244E-07  0.251E-04    1.39      45.2  T
     SCC iter.                  ...        0 min,  0.064 sec
     gradient                   ...        0 min,  0.074 sec
 * total energy  :  -130.7246770 Eh     change       -0.6606967E-03 Eh
   gradient norm :     0.0052879 Eh/α   predicted    -0.4983709E-03 ( -24.57%)
   displ. norm   :     0.6019629 α      lambda       -0.6837711E-03
   maximum displ.:     0.3995042 α      in ANC's #7, #6, #5, ...

........................................................................
.............................. CYCLE   27 ..............................
........................................................................
   1   -133.1478749 -0.133148E+03  0.115E-01    1.40       0.0  T
   2   -133.1478768 -0.190350E-05  0.674E-02    1.40       1.0  T
   3   -133.1478607  0.160444E-04  0.130E-02    1.40       1.0  T
   4   -133.1478779 -0.172114E-04  0.258E-03    1.40       4.4  T
   5   -133.1478783 -0.343796E-06  0.153E-03    1.40       7.4  T
   6   -133.1478784 -0.146831E-06  0.733E-04    1.40      15.5  T
   7   -133.1478785 -0.472490E-07  0.314E-04    1.40      36.1  T
     SCC iter.                  ...        0 min,  0.064 sec
     gradient                   ...        0 min,  0.074 sec
 * total energy  :  -130.7252496 Eh     change       -0.5725346E-03 Eh
   gradient norm :     0.0054532 Eh/α   predicted    -0.4657752E-03 ( -18.65%)
   displ. norm   :     0.6102438 α      lambda       -0.5600766E-03
   maximum displ.:     0.4025771 α      in ANC's #7, #6, #5, ...

........................................................................
.............................. CYCLE   28 ..............................
........................................................................
   1   -133.1476641 -0.133148E+03  0.111E-01    1.41       0.0  T
   2   -133.1476660 -0.199650E-05  0.649E-02    1.41       1.0  T
   3   -133.1476533  0.127569E-04  0.120E-02    1.41       1.0  T
   4   -133.1476671 -0.138122E-04  0.254E-03    1.41       4.5  T
   5   -133.1476674 -0.265587E-06  0.157E-03    1.41       7.2  T
   6   -133.1476675 -0.178453E-06  0.685E-04    1.41      16.5  T
   7   -133.1476676 -0.443003E-07  0.254E-04    1.41      44.6  T
     SCC iter.                  ...        0 min,  0.064 sec
     gradient                   ...        0 min,  0.074 sec
 * total energy  :  -130.7257148 Eh     change       -0.4652068E-03 Eh
   gradient norm :     0.0059516 Eh/α   predicted    -0.3843273E-03 ( -17.39%)
   displ. norm   :     0.6121001 α      lambda       -0.4699693E-03
   maximum displ.:     0.3998933 α      in ANC's #7, #6, #5, ...

........................................................................
.............................. CYCLE   29 ..............................
........................................................................
   1   -133.1484764 -0.133148E+03  0.113E-01    1.42       0.0  T
   2   -133.1484785 -0.211462E-05  0.664E-02    1.42       1.0  T
   3   -133.1484648  0.136753E-04  0.126E-02    1.42       1.0  T
   4   -133.1484797 -0.148519E-04  0.257E-03    1.42       4.4  T
   5   -133.1484799 -0.211871E-06  0.167E-03    1.42       6.8  T
   6   -133.1484801 -0.218104E-06  0.682E-04    1.42      16.6  T
   7   -133.1484802 -0.467497E-07  0.211E-04    1.42      53.6  T
     SCC iter.                  ...        0 min,  0.064 sec
     gradient                   ...        0 min,  0.074 sec
 * total energy  :  -130.7260918 Eh     change       -0.3770450E-03 Eh
   gradient norm :     0.0048319 Eh/α   predicted    -0.3230259E-03 ( -14.33%)
   displ. norm   :     0.5788246 α      lambda       -0.3463134E-03
   maximum displ.:     0.3749976 α      in ANC's #7, #6, #5, ...

........................................................................
.............................. CYCLE   30 ..............................
........................................................................
   1   -133.1499318 -0.133150E+03  0.101E-01    1.42       0.0  T
   2   -133.1499339 -0.210003E-05  0.592E-02    1.42       1.0  T
   3   -133.1499251  0.880387E-05  0.100E-02    1.42       1.1  T
   4   -133.1499349 -0.982009E-05  0.238E-03    1.42       4.7  T
   5   -133.1499350 -0.102701E-06  0.163E-03    1.42       6.9  T
   6   -133.1499352 -0.209485E-06  0.651E-04    1.42      17.4  T
   7   -133.1499352 -0.413669E-07  0.180E-04    1.42      62.8  T
     SCC iter.                  ...        0 min,  0.064 sec
     gradient                   ...        0 min,  0.074 sec
 * total energy  :  -130.7263607 Eh     change       -0.2689349E-03 Eh
   gradient norm :     0.0038970 Eh/α   predicted    -0.2311714E-03 ( -14.04%)
   displ. norm   :     0.5032508 α      lambda       -0.2226678E-03
   maximum displ.:     0.3202514 α      in ANC's #7, #5, #6, ...

........................................................................
.............................. CYCLE   31 ..............................
........................................................................
   1   -133.1511092 -0.133151E+03  0.886E-02    1.42       0.0  T
   2   -133.1511110 -0.173950E-05  0.518E-02    1.42       1.0  T
   3   -133.1511072  0.373665E-05  0.682E-03    1.42       1.7  T
   4   -133.1511117 -0.448288E-05  0.194E-03    1.42       5.8  T
   5   -133.1511117 -0.355160E-07  0.131E-03    1.42       8.6  T
   6   -133.1511119 -0.114874E-06  0.608E-04    1.42      18.6  T
   7   -133.1511119 -0.386783E-07  0.156E-04    1.42      72.8  T
     SCC iter.                  ...        0 min,  0.064 sec
     gradient                   ...        0 min,  0.074 sec
 * total energy  :  -130.7265307 Eh     change       -0.1699326E-03 Eh
   gradient norm :     0.0036454 Eh/α   predicted    -0.1395323E-03 ( -17.89%)
   displ. norm   :     0.3901823 α      lambda       -0.1349694E-03
   maximum displ.:     0.2401698 α      in ANC's #7, #5, #6, ...

........................................................................
.............................. CYCLE   32 ..............................
........................................................................
   1   -133.1528454 -0.133153E+03  0.669E-02    1.41       0.0  T
   2   -133.1528465 -0.110144E-05  0.391E-02    1.41       1.0  T
   3   -133.1528445  0.202700E-05  0.503E-03    1.41       2.3  T
   4   -133.1528470 -0.247706E-05  0.145E-03    1.41       7.8  T
   5   -133.1528470 -0.534437E-07  0.839E-04    1.41      13.5  T
   6   -133.1528471 -0.301237E-07  0.469E-04    1.41      24.2  T
     SCC iter.                  ...        0 min,  0.056 sec
     gradient                   ...        0 min,  0.074 sec
 * total energy  :  -130.7266328 Eh     change       -0.1021052E-03 Eh
   gradient norm :     0.0036964 Eh/α   predicted    -0.7775899E-04 ( -23.84%)
   displ. norm   :     0.2862595 α      lambda       -0.8461124E-04
   maximum displ.:     0.1663052 α      in ANC's #7, #5, #6, ...

........................................................................
.............................. CYCLE   33 ..............................
........................................................................
   1   -133.1534130 -0.133153E+03  0.495E-02    1.41       0.0  T
   2   -133.1534136 -0.543886E-06  0.290E-02    1.41       1.0  T
   3   -133.1534112  0.235847E-05  0.453E-03    1.41       2.5  T
   4   -133.1534137 -0.252311E-05  0.132E-03    1.41       8.6  T
   5   -133.1534139 -0.131469E-06  0.745E-04    1.41      15.2  T
   6   -133.1534139 -0.415232E-07  0.310E-04    1.41      36.5  T
     SCC iter.                  ...        0 min,  0.056 sec
     gradient                   ...        0 min,  0.074 sec
 * total energy  :  -130.7266984 Eh     change       -0.6560421E-04 Eh
   gradient norm :     0.0030206 Eh/α   predicted    -0.4577350E-04 ( -30.23%)
   displ. norm   :     0.2095924 α      lambda       -0.6710803E-04
   maximum displ.:     0.1305160 α      in ANC's #5, #7, #3, ...

........................................................................
.............................. CYCLE   34 ..............................
........................................................................
   1   -133.1544268 -0.133154E+03  0.386E-02    1.40       0.0  T
   2   -133.1544271 -0.303169E-06  0.226E-02    1.40       1.0  T
   3   -133.1544251  0.195197E-05  0.437E-03    1.40       2.6  T
   4   -133.1544271 -0.203613E-05  0.118E-03    1.40       9.6  T
   5   -133.1544273 -0.123776E-06  0.553E-04    1.40      20.5  T
   6   -133.1544273 -0.137984E-07  0.299E-04    1.40      37.9  T
     SCC iter.                  ...        0 min,  0.056 sec
     gradient                   ...        0 min,  0.074 sec
 * total energy  :  -130.7267514 Eh     change       -0.5297306E-04 Eh
   gradient norm :     0.0029499 Eh/α   predicted    -0.3502969E-04 ( -33.87%)
   displ. norm   :     0.1887837 α      lambda       -0.6591411E-04
   maximum displ.:     0.1240690 α      in ANC's #5, #3, #7, ...

........................................................................
.............................. CYCLE   35 ..............................
........................................................................
   1   -133.1537627 -0.133154E+03  0.369E-02    1.40       0.0  T
   2   -133.1537630 -0.215829E-06  0.217E-02    1.40       1.0  T
   3   -133.1537597  0.323219E-05  0.558E-03    1.40       2.0  T
   4   -133.1537630 -0.330465E-05  0.130E-03    1.40       8.7  T
   5   -133.1537632 -0.172107E-06  0.457E-04    1.40      24.8  T
   6   -133.1537632 -0.457780E-08  0.272E-04    1.40      41.7  T
     SCC iter.                  ...        0 min,  0.056 sec
     gradient                   ...        0 min,  0.074 sec
 * total energy  :  -130.7268025 Eh     change       -0.5116093E-04 Eh
   gradient norm :     0.0023469 Eh/α   predicted    -0.3413454E-04 ( -33.28%)
   displ. norm   :     0.1746284 α      lambda       -0.5873339E-04
   maximum displ.:     0.1090704 α      in ANC's #5, #3, #4, ...

........................................................................
.............................. CYCLE   36 ..............................
........................................................................
   1   -133.1534876 -0.133153E+03  0.378E-02    1.40       0.0  T
   2   -133.1534878 -0.179329E-06  0.222E-02    1.40       1.0  T
   3   -133.1534851  0.266228E-05  0.509E-03    1.40       2.2  T
   4   -133.1534878 -0.273114E-05  0.119E-03    1.40       9.6  T
   5   -133.1534880 -0.139910E-06  0.406E-04    1.40      27.9  T
   6   -133.1534880 -0.175226E-08  0.260E-04    1.40      43.5  T
     SCC iter.                  ...        0 min,  0.057 sec
     gradient                   ...        0 min,  0.074 sec
 * total energy  :  -130.7268466 Eh     change       -0.4405816E-04 Eh
   gradient norm :     0.0021234 Eh/α   predicted    -0.3026679E-04 ( -31.30%)
   displ. norm   :     0.1485825 α      lambda       -0.4447186E-04
   maximum displ.:     0.0842865 α      in ANC's #5, #3, #6, ...

........................................................................
.............................. CYCLE   37 ..............................
........................................................................
   1   -133.1522172 -0.133152E+03  0.312E-02    1.40       0.0  T
   2   -133.1522173 -0.100794E-06  0.184E-02    1.40       1.0  T
   3   -133.1522145  0.279548E-05  0.507E-03    1.40       2.2  T
   4   -133.1522174 -0.287841E-05  0.965E-04    1.40      11.7  T
   5   -133.1522175 -0.885250E-07  0.340E-04    1.40      33.3  T
   6   -133.1522175 -0.241363E-08  0.198E-04    1.40      57.1  T
     SCC iter.                  ...        0 min,  0.056 sec
     gradient                   ...        0 min,  0.074 sec
 * total energy  :  -130.7268801 Eh     change       -0.3350444E-04 Eh
   gradient norm :     0.0021167 Eh/α   predicted    -0.2272934E-04 ( -32.16%)
   displ. norm   :     0.1389293 α      lambda       -0.3741538E-04
   maximum displ.:     0.0736730 α      in ANC's #6, #3, #5, ...

........................................................................
.............................. CYCLE   38 ..............................
........................................................................
   1   -133.1518950 -0.133152E+03  0.284E-02    1.40       0.0  T
   2   -133.1518951 -0.912695E-07  0.167E-02    1.40       1.0  T
   3   -133.1518926  0.243852E-05  0.438E-03    1.40       2.6  T
   4   -133.1518951 -0.251557E-05  0.903E-04    1.40      12.5  T
   5   -133.1518952 -0.738635E-07  0.345E-04    1.40      32.8  T
   6   -133.1518952 -0.188257E-08  0.205E-04    1.40      55.3  T
     SCC iter.                  ...        0 min,  0.056 sec
     gradient                   ...        0 min,  0.074 sec
 * total energy  :  -130.7269086 Eh     change       -0.2850360E-04 Eh
   gradient norm :     0.0019084 Eh/α   predicted    -0.1906913E-04 ( -33.10%)
   displ. norm   :     0.1954133 α      lambda       -0.3255887E-04
   maximum displ.:     0.0972653 α      in ANC's #6, #3, #5, ...

........................................................................
.............................. CYCLE   39 ..............................
........................................................................
   1   -133.1512089 -0.133151E+03  0.381E-02    1.41       0.0  T
   2   -133.1512092 -0.256053E-06  0.224E-02    1.41       1.0  T
   3   -133.1512047  0.447560E-05  0.592E-03    1.41       1.9  T
   4   -133.1512093 -0.455063E-05  0.155E-03    1.41       7.3  T
   5   -133.1512095 -0.237209E-06  0.548E-04    1.41      20.7  T
   6   -133.1512095 -0.809786E-08  0.307E-04    1.41      36.9  T
     SCC iter.                  ...        0 min,  0.056 sec
     gradient                   ...        0 min,  0.074 sec
 * total energy  :  -130.7269393 Eh     change       -0.3071516E-04 Eh
   gradient norm :     0.0022426 Eh/α   predicted    -0.1655659E-04 ( -46.10%)
   displ. norm   :     0.0601852 α      lambda       -0.1693567E-04
   maximum displ.:     0.0332913 α      in ANC's #3, #5, #6, ...

........................................................................
.............................. CYCLE   40 ..............................
........................................................................
   1   -133.1519664 -0.133152E+03  0.112E-02    1.41       0.0  T
   2   -133.1519665 -0.397159E-07  0.658E-03    1.41       1.7  T
   3   -133.1519663  0.134283E-06  0.116E-03    1.41       9.7  T
   4   -133.1519665 -0.143295E-06  0.355E-04    1.41      31.9  T
   5   -133.1519665 -0.111515E-07  0.168E-04    1.41      67.4  T
     SCC iter.                  ...        0 min,  0.047 sec
     gradient                   ...        0 min,  0.074 sec
 * total energy  :  -130.7269539 Eh     change       -0.1459549E-04 Eh
   gradient norm :     0.0019734 Eh/α   predicted    -0.8501406E-05 ( -41.75%)
   displ. norm   :     0.2158381 α      lambda       -0.3960845E-04
   maximum displ.:     0.1222444 α      in ANC's #3, #5, #10, ...

........................................................................
.............................. CYCLE   41 ..............................
........................................................................
   1   -133.1529506 -0.133153E+03  0.419E-02    1.41       0.0  T
   2   -133.1529510 -0.404780E-06  0.245E-02    1.41       1.0  T
   3   -133.1529485  0.252244E-05  0.518E-03    1.41       2.2  T
   4   -133.1529511 -0.267171E-05  0.135E-03    1.41       8.4  T
   5   -133.1529513 -0.120259E-06  0.674E-04    1.41      16.8  T
   6   -133.1529513 -0.200155E-07  0.383E-04    1.41      29.5  T
     SCC iter.                  ...        0 min,  0.056 sec
     gradient                   ...        0 min,  0.074 sec
 * total energy  :  -130.7269861 Eh     change       -0.3218878E-04 Eh
   gradient norm :     0.0019934 Eh/α   predicted    -0.2021692E-04 ( -37.19%)
   displ. norm   :     0.1045180 α      lambda       -0.1365853E-04
   maximum displ.:     0.0647377 α      in ANC's #3, #5, #4, ...

........................................................................
.............................. CYCLE   42 ..............................
........................................................................
   1   -133.1532694 -0.133153E+03  0.126E-02    1.41       0.0  T
   2   -133.1532695 -0.176717E-07  0.743E-03    1.41       1.5  T
   3   -133.1532682  0.123121E-05  0.310E-03    1.41       3.7  T
   4   -133.1532695 -0.127349E-05  0.612E-04    1.41      18.5  T
   5   -133.1532695 -0.327222E-07  0.188E-04    1.41      60.2  T
   6   -133.1532695 -0.104384E-08  0.111E-04    1.41     101.7  T
     SCC iter.                  ...        0 min,  0.056 sec
     gradient                   ...        0 min,  0.074 sec
 * total energy  :  -130.7270042 Eh     change       -0.1809753E-04 Eh
   gradient norm :     0.0018673 Eh/α   predicted    -0.6863694E-05 ( -62.07%)
   displ. norm   :     0.2372208 α      lambda       -0.3504257E-04
   maximum displ.:     0.1394505 α      in ANC's #3, #5, #4, ...
 * RMSD in coord.:     0.6508837 α      energy gain  -0.5532890E-02 Eh

generating ANC from model Hessian ...
Using Lindh-Hessian (1995)
 Shifting diagonal of input Hessian by    9.9877603408355890E-003
 Lowest  eigenvalues of input Hessian
    0.000000    0.000000    0.000000    0.000000    0.000000    0.000000
    0.010000    0.010005    0.010054    0.010075    0.010482    0.010744
    0.010842    0.010842    0.011630    0.011922    0.012177    0.012431
 Highest eigenvalues
    2.228605    2.236411    2.247790    2.248862    2.399348    2.922497


........................................................................
.............................. CYCLE   43 ..............................
........................................................................
   1   -133.1528943 -0.133153E+03  0.312E-02    1.41       0.0  T
   2   -133.1528945 -0.175031E-06  0.183E-02    1.41       1.0  T
   3   -133.1528896  0.489551E-05  0.651E-03    1.41       1.7  T
   4   -133.1528945 -0.496044E-05  0.167E-03    1.41       6.8  T
   5   -133.1528948 -0.268576E-06  0.441E-04    1.41      25.7  T
   6   -133.1528948 -0.603634E-08  0.251E-04    1.41      45.2  T
     SCC iter.                  ...        0 min,  0.056 sec
     gradient                   ...        0 min,  0.074 sec
 * total energy  :  -130.7270427 Eh     change       -0.3855409E-04 Eh
   gradient norm :     0.0014086 Eh/α   predicted     0.0000000E+00 (-100.00%)
   displ. norm   :     0.0337304 α      lambda       -0.8256824E-05
   maximum displ.:     0.0167302 α      in ANC's #3, #6, #18, ...

........................................................................
.............................. CYCLE   44 ..............................
........................................................................
   1   -133.1525761 -0.133153E+03  0.158E-02    1.41       0.0  T
   2   -133.1525761 -0.404111E-07  0.948E-03    1.41       1.2  T
   3   -133.1525758  0.306883E-06  0.185E-03    1.41       6.1  T
   4   -133.1525762 -0.321059E-06  0.470E-04    1.41      24.1  T
   5   -133.1525762 -0.144423E-07  0.229E-04    1.41      49.4  T
     SCC iter.                  ...        0 min,  0.047 sec
     gradient                   ...        0 min,  0.074 sec
 * total energy  :  -130.7270429 Eh     change       -0.1702281E-06 Eh
   gradient norm :     0.0012308 Eh/α   predicted    -0.4502972E-05 (2545.26%)
   displ. norm   :     0.0723382 α      lambda       -0.2382364E-04
   maximum displ.:     0.0431838 α      in ANC's #3, #8, #6, ...

........................................................................
.............................. CYCLE   45 ..............................
........................................................................
   1   -133.1520729 -0.133152E+03  0.206E-02    1.41       0.0  T
   2   -133.1520731 -0.129870E-06  0.122E-02    1.41       1.0  T
   3   -133.1520705  0.255498E-05  0.444E-03    1.41       2.5  T
   4   -133.1520731 -0.258044E-05  0.115E-03    1.41       9.8  T
   5   -133.1520732 -0.151624E-06  0.445E-04    1.41      25.4  T
   6   -133.1520732 -0.129079E-07  0.211E-04    1.41      53.6  T
     SCC iter.                  ...        0 min,  0.056 sec
     gradient                   ...        0 min,  0.074 sec
 * total energy  :  -130.7270529 Eh     change       -0.9970617E-05 Eh
   gradient norm :     0.0023735 Eh/α   predicted    -0.1194033E-04 (  19.76%)
   displ. norm   :     0.0149055 α      lambda       -0.1178980E-04
   maximum displ.:     0.0069553 α      in ANC's #3, #4, #5, ...

........................................................................
.............................. CYCLE   46 ..............................
........................................................................
   1   -133.1523798 -0.133152E+03  0.645E-03    1.41       0.0  T
   2   -133.1523798 -0.180986E-07  0.386E-03    1.41       2.9  T
   3   -133.1523796  0.246554E-06  0.137E-03    1.41       8.3  T
   4   -133.1523799 -0.258027E-06  0.295E-04    1.41      38.4  T
   5   -133.1523799 -0.107462E-07  0.116E-04    1.41      97.6  T
     SCC iter.                  ...        0 min,  0.047 sec
     gradient                   ...        0 min,  0.074 sec
 * total energy  :  -130.7270616 Eh     change       -0.8751083E-05 Eh
   gradient norm :     0.0013135 Eh/α   predicted    -0.5900556E-05 ( -32.57%)
   displ. norm   :     0.0600389 α      lambda       -0.1223513E-04
   maximum displ.:     0.0393329 α      in ANC's #3, #5, #8, ...

........................................................................
.............................. CYCLE   47 ..............................
........................................................................
   1   -133.1529755 -0.133153E+03  0.144E-02    1.41       0.0  T
   2   -133.1529755 -0.749079E-07  0.860E-03    1.41       1.3  T
   3   -133.1529743  0.128129E-05  0.300E-03    1.41       3.8  T
   4   -133.1529755 -0.129100E-05  0.875E-04    1.41      12.9  T
   5   -133.1529756 -0.894085E-07  0.285E-04    1.41      39.7  T
   6   -133.1529756 -0.519040E-08  0.124E-04    1.41      91.4  T
     SCC iter.                  ...        0 min,  0.056 sec
     gradient                   ...        0 min,  0.074 sec
 * total energy  :  -130.7270703 Eh     change       -0.8654721E-05 Eh
   gradient norm :     0.0012778 Eh/α   predicted    -0.6130639E-05 ( -29.16%)
   displ. norm   :     0.0647985 α      lambda       -0.7673294E-05
   maximum displ.:     0.0423238 α      in ANC's #3, #5, #8, ...

........................................................................
.............................. CYCLE   48 ..............................
........................................................................
   1   -133.1529469 -0.133153E+03  0.139E-02    1.41       0.0  T
   2   -133.1529469 -0.321992E-08  0.823E-03    1.41       1.4  T
   3   -133.1529462  0.708442E-06  0.239E-03    1.41       4.7  T
   4   -133.1529469 -0.741190E-06  0.294E-04    1.41      38.5  T
   5   -133.1529469 -0.636413E-08  0.148E-04    1.41      76.7  T
     SCC iter.                  ...        0 min,  0.047 sec
     gradient                   ...        0 min,  0.074 sec
 * total energy  :  -130.7270788 Eh     change       -0.8519290E-05 Eh
   gradient norm :     0.0011498 Eh/α   predicted    -0.3844420E-05 ( -54.87%)
   displ. norm   :     0.1151265 α      lambda       -0.1284461E-04
   maximum displ.:     0.0758082 α      in ANC's #3, #5, #8, ...

........................................................................
.............................. CYCLE   49 ..............................
........................................................................
   1   -133.1526584 -0.133153E+03  0.155E-02    1.41       0.0  T
   2   -133.1526584 -0.124119E-07  0.917E-03    1.41       1.2  T
   3   -133.1526568  0.162454E-05  0.374E-03    1.41       3.0  T
   4   -133.1526585 -0.170393E-05  0.492E-04    1.41      23.0  T
   5   -133.1526585 -0.244997E-07  0.233E-04    1.41      48.5  T
   6   -133.1526585 -0.307304E-08  0.123E-04    1.41      92.0  T
     SCC iter.                  ...        0 min,  0.056 sec
     gradient                   ...        0 min,  0.074 sec
 * total energy  :  -130.7270940 Eh     change       -0.1525300E-04 Eh
   gradient norm :     0.0004722 Eh/α   predicted    -0.6463772E-05 ( -57.62%)
   displ. norm   :     0.1335301 α      lambda       -0.1049982E-04
   maximum displ.:     0.0882561 α      in ANC's #3, #5, #8, ...

........................................................................
.............................. CYCLE   50 ..............................
........................................................................
   1   -133.1526456 -0.133153E+03  0.164E-02    1.41       0.0  T
   2   -133.1526456 -0.154537E-07  0.968E-03    1.41       1.2  T
   3   -133.1526440  0.154466E-05  0.358E-03    1.41       3.2  T
   4   -133.1526457 -0.162050E-05  0.531E-04    1.41      21.3  T
   5   -133.1526457 -0.231836E-07  0.233E-04    1.41      48.6  T
   6   -133.1526457 -0.146238E-08  0.118E-04    1.41      96.2  T
     SCC iter.                  ...        0 min,  0.056 sec
     gradient                   ...        0 min,  0.074 sec
 * total energy  :  -130.7271076 Eh     change       -0.1354194E-04 Eh
   gradient norm :     0.0005682 Eh/α   predicted    -0.5293748E-05 ( -60.91%)
   displ. norm   :     0.1346583 α      lambda       -0.9615421E-05
   maximum displ.:     0.0896086 α      in ANC's #3, #5, #4, ...

........................................................................
.............................. CYCLE   51 ..............................
........................................................................
   1   -133.1527538 -0.133153E+03  0.153E-02    1.41       0.0  T
   2   -133.1527538 -0.226827E-07  0.900E-03    1.41       1.3  T
   3   -133.1527526  0.128051E-05  0.338E-03    1.41       3.4  T
   4   -133.1527539 -0.134620E-05  0.546E-04    1.41      20.7  T
   5   -133.1527539 -0.227696E-07  0.237E-04    1.41      47.8  T
   6   -133.1527539 -0.163087E-08  0.115E-04    1.41      98.6  T
     SCC iter.                  ...        0 min,  0.056 sec
     gradient                   ...        0 min,  0.074 sec
 * total energy  :  -130.7271204 Eh     change       -0.1281211E-04 Eh
   gradient norm :     0.0005308 Eh/α   predicted    -0.4849780E-05 ( -62.15%)
   displ. norm   :     0.1387088 α      lambda       -0.9551649E-05
   maximum displ.:     0.0935597 α      in ANC's #3, #5, #4, ...

........................................................................
.............................. CYCLE   52 ..............................
........................................................................
   1   -133.1528654 -0.133153E+03  0.150E-02    1.41       0.0  T
   2   -133.1528654 -0.374216E-07  0.878E-03    1.41       1.3  T
   3   -133.1528644  0.106293E-05  0.312E-03    1.41       3.6  T
   4   -133.1528655 -0.112835E-05  0.523E-04    1.41      21.7  T
   5   -133.1528655 -0.164586E-07  0.273E-04    1.41      41.4  T
   6   -133.1528655 -0.313963E-08  0.123E-04    1.41      92.2  T
     SCC iter.                  ...        0 min,  0.056 sec
     gradient                   ...        0 min,  0.074 sec
 * total energy  :  -130.7271330 Eh     change       -0.1261554E-04 Eh
   gradient norm :     0.0005196 Eh/α   predicted    -0.4819861E-05 ( -61.79%)
   displ. norm   :     0.1341524 α      lambda       -0.8725556E-05
   maximum displ.:     0.0920858 α      in ANC's #3, #5, #4, ...

........................................................................
.............................. CYCLE   53 ..............................
........................................................................
   1   -133.1529059 -0.133153E+03  0.137E-02    1.41       0.0  T
   2   -133.1529060 -0.333367E-07  0.805E-03    1.41       1.4  T
   3   -133.1529051  0.888613E-06  0.286E-03    1.41       4.0  T
   4   -133.1529060 -0.951610E-06  0.430E-04    1.41      26.3  T
   5   -133.1529060 -0.807006E-08  0.262E-04    1.41      43.3  T
     SCC iter.                  ...        0 min,  0.047 sec
     gradient                   ...        0 min,  0.074 sec
 * total energy  :  -130.7271444 Eh     change       -0.1138531E-04 Eh
   gradient norm :     0.0005438 Eh/α   predicted    -0.4400061E-05 ( -61.35%)
   displ. norm   :     0.1146192 α      lambda       -0.7110802E-05
   maximum displ.:     0.0808003 α      in ANC's #3, #5, #4, ...

........................................................................
.............................. CYCLE   54 ..............................
........................................................................
   1   -133.1529303 -0.133153E+03  0.111E-02    1.41       0.0  T
   2   -133.1529303 -0.240637E-07  0.652E-03    1.41       1.7  T
   3   -133.1529297  0.559492E-06  0.224E-03    1.41       5.1  T
   4   -133.1529303 -0.609702E-06  0.245E-04    1.41      46.1  T
   5   -133.1529303  0.131053E-09  0.168E-04    1.41      67.3  T
     SCC iter.                  ...        0 min,  0.047 sec
     gradient                   ...        0 min,  0.074 sec
 * total energy  :  -130.7271540 Eh     change       -0.9586128E-05 Eh
   gradient norm :     0.0005365 Eh/α   predicted    -0.3577949E-05 ( -62.68%)
   displ. norm   :     0.0951209 α      lambda       -0.6216575E-05
   maximum displ.:     0.0685297 α      in ANC's #3, #5, #4, ...

........................................................................
.............................. CYCLE   55 ..............................
........................................................................
   1   -133.1529637 -0.133153E+03  0.900E-03    1.41       0.0  T
   2   -133.1529637 -0.155416E-07  0.528E-03    1.41       2.1  T
   3   -133.1529634  0.349810E-06  0.173E-03    1.41       6.5  T
   4   -133.1529638 -0.379008E-06  0.221E-04    1.41      51.2  T
   5   -133.1529638 -0.775231E-09  0.155E-04    1.41      73.3  T
     SCC iter.                  ...        0 min,  0.047 sec
     gradient                   ...        0 min,  0.074 sec
 * total energy  :  -130.7271627 Eh     change       -0.8705175E-05 Eh
   gradient norm :     0.0005030 Eh/α   predicted    -0.3122588E-05 ( -64.13%)
   displ. norm   :     0.0971725 α      lambda       -0.7075439E-05
   maximum displ.:     0.0700818 α      in ANC's #3, #4, #5, ...

........................................................................
.............................. CYCLE   56 ..............................
........................................................................
   1   -133.1529508 -0.133153E+03  0.105E-02    1.41       0.0  T
   2   -133.1529508 -0.151121E-07  0.619E-03    1.41       1.8  T
   3   -133.1529504  0.335210E-06  0.177E-03    1.41       6.4  T
   4   -133.1529508 -0.362164E-06  0.244E-04    1.41      46.3  T
   5   -133.1529508 -0.206126E-08  0.149E-04    1.41      76.0  T
     SCC iter.                  ...        0 min,  0.049 sec
     gradient                   ...        0 min,  0.074 sec
 * total energy  :  -130.7271727 Eh     change       -0.9995789E-05 Eh
   gradient norm :     0.0004518 Eh/α   predicted    -0.3554377E-05 ( -64.44%)
   displ. norm   :     0.1251212 α      lambda       -0.9413166E-05
   maximum displ.:     0.0891740 α      in ANC's #3, #4, #5, ...

........................................................................
.............................. CYCLE   57 ..............................
........................................................................
   1   -133.1529351 -0.133153E+03  0.142E-02    1.41       0.0  T
   2   -133.1529352 -0.272671E-07  0.834E-03    1.41       1.4  T
   3   -133.1529346  0.553053E-06  0.216E-03    1.41       5.2  T
   4   -133.1529352 -0.593945E-06  0.330E-04    1.41      34.4  T
   5   -133.1529352 -0.679867E-08  0.188E-04    1.41      60.2  T
     SCC iter.                  ...        0 min,  0.047 sec
     gradient                   ...        0 min,  0.074 sec
 * total energy  :  -130.7271858 Eh     change       -0.1315088E-04 Eh
   gradient norm :     0.0003839 Eh/α   predicted    -0.4740847E-05 ( -63.95%)
   displ. norm   :     0.1588425 α      lambda       -0.1130727E-04
   maximum displ.:     0.1126722 α      in ANC's #3, #4, #5, ...

........................................................................
.............................. CYCLE   58 ..............................
........................................................................
   1   -133.1528540 -0.133153E+03  0.185E-02    1.41       0.0  T
   2   -133.1528541 -0.432247E-07  0.109E-02    1.41       1.0  T
   3   -133.1528533  0.768336E-06  0.266E-03    1.41       4.2  T
   4   -133.1528541 -0.830390E-06  0.413E-04    1.41      27.4  T
   5   -133.1528541 -0.838855E-08  0.228E-04    1.41      49.6  T
     SCC iter.                  ...        0 min,  0.047 sec
     gradient                   ...        0 min,  0.074 sec
 * total energy  :  -130.7272012 Eh     change       -0.1536796E-04 Eh
   gradient norm :     0.0003103 Eh/α   predicted    -0.5719339E-05 ( -62.78%)
   displ. norm   :     0.1679737 α      lambda       -0.1046462E-04
   maximum displ.:     0.1197240 α      in ANC's #3, #4, #5, ...

........................................................................
.............................. CYCLE   59 ..............................
........................................................................
   1   -133.1528270 -0.133153E+03  0.188E-02    1.41       0.0  T
   2   -133.1528270 -0.511300E-07  0.110E-02    1.41       1.0  T
   3   -133.1528263  0.742064E-06  0.263E-03    1.41       4.3  T
   4   -133.1528271 -0.812076E-06  0.357E-04    1.41      31.8  T
   5   -133.1528271 -0.401252E-08  0.214E-04    1.41      53.0  T
     SCC iter.                  ...        0 min,  0.047 sec
     gradient                   ...        0 min,  0.074 sec
 * total energy  :  -130.7272152 Eh     change       -0.1396785E-04 Eh
   gradient norm :     0.0002830 Eh/α   predicted    -0.5299064E-05 ( -62.06%)
   displ. norm   :     0.1396655 α      lambda       -0.7549873E-05
   maximum displ.:     0.1008041 α      in ANC's #3, #4, #5, ...

........................................................................
.............................. CYCLE   60 ..............................
........................................................................
   1   -133.1528361 -0.133153E+03  0.144E-02    1.41       0.0  T
   2   -133.1528362 -0.332921E-07  0.844E-03    1.41       1.3  T
   3   -133.1528357  0.511709E-06  0.217E-03    1.41       5.2  T
   4   -133.1528362 -0.554668E-06  0.354E-04    1.41      32.0  T
   5   -133.1528362 -0.572118E-08  0.207E-04    1.41      54.6  T
     SCC iter.                  ...        0 min,  0.047 sec
     gradient                   ...        0 min,  0.074 sec
 * total energy  :  -130.7272254 Eh     change       -0.1019190E-04 Eh
   gradient norm :     0.0003505 Eh/α   predicted    -0.3810951E-05 ( -62.61%)
   displ. norm   :     0.1030615 α      lambda       -0.5342241E-05
   maximum displ.:     0.0756639 α      in ANC's #3, #4, #5, ...

........................................................................
.............................. CYCLE   61 ..............................
........................................................................
   1   -133.1528850 -0.133153E+03  0.993E-03    1.41       0.0  T
   2   -133.1528850 -0.182873E-07  0.582E-03    1.41       1.9  T
   3   -133.1528847  0.307007E-06  0.168E-03    1.41       6.7  T
   4   -133.1528851 -0.335915E-06  0.209E-04    1.41      54.2  T
   5   -133.1528851 -0.651283E-09  0.133E-04    1.41      85.4  T
     SCC iter.                  ...        0 min,  0.047 sec
     gradient                   ...        0 min,  0.074 sec
 * total energy  :  -130.7272328 Eh     change       -0.7405612E-05 Eh
   gradient norm :     0.0003609 Eh/α   predicted    -0.2687611E-05 ( -63.71%)
   displ. norm   :     0.0773979 α      lambda       -0.4356809E-05
   maximum displ.:     0.0579254 α      in ANC's #3, #4, #5, ...

........................................................................
.............................. CYCLE   62 ..............................
........................................................................
   1   -133.1529435 -0.133153E+03  0.728E-03    1.41       0.0  T
[...]
    58   6 C       59   6 C                                       1.4213034
    59   6 C       60   6 C                                       1.3647467
    60   6 C       61   6 C                                       1.4236170
    58   6 C       62   7 N                                       1.3568555
    61   6 C       62   7 N                                       1.3617073
    61   6 C       63   6 C                                       1.3868878
    63   6 C       64   6 C                                       1.3879966
    44   6 C       65   7 N                                       1.3496391
    64   6 C       65   7 N                                       1.3490152
    42   6 C       66   1 H                                       1.0732929
    43   6 C       67   1 H                                       1.0732409
    45   6 C       68   1 H                                       1.0804533
    47   6 C       69   1 H                                       1.0727299
    48   6 C       70   1 H                                       1.0728388
    50   7 N       71   1 H                                       1.0128116 (min)
    51   6 C       72   1 H                                       1.0813490
    53   6 C       73   1 H                                       1.0731191
    54   6 C       74   1 H                                       1.0729528
    59   6 C       75   1 H                                       1.0726752
    60   6 C       76   1 H                                       1.0726315
    62   7 N       77   1 H                                       1.0133617
    63   6 C       78   1 H                                       1.0812436

 * 4 distinct bonds (by element types)

   Z      Z             #   av. dist./Å        max./Å        min./Å
   1 H    6 C          22     1.0751368     1.0813490     1.0726315
   6 C    6 C          40     1.3914324     1.4548995     1.2172524
   1 H    7 N           4     1.0130976     1.0133829     1.0128116
   6 C    7 N          16     1.3542708     1.3617073     1.3444887

           -------------------------------------------------
          |               Frequency Printout                |
           -------------------------------------------------
 projected vibrational frequencies (cm⁻¹)
eigval :       -0.00    -0.00    -0.00     0.00     0.00     0.00
eigval :       -5.39     7.74     7.97    23.43    24.19    41.77
eigval :       42.08    42.56    60.82    62.12    66.42    95.55
eigval :       96.02   106.91   108.10   116.79   117.09   134.52
eigval :      135.27   142.78   142.99   174.98   181.39   181.75
eigval :      197.91   198.81   203.28   203.38   258.40   264.99
eigval :      265.29   266.71   273.09   279.91   282.64   297.10
eigval :      300.09   325.34   340.66   340.89   352.27   352.89
eigval :      358.29   361.89   362.15   365.50   374.54   375.79
eigval :      393.97   394.05   420.19   421.91   430.42   430.45
eigval :      441.11   441.33   502.91   504.46   508.67   600.30
eigval :      600.48   604.78   604.91   627.26   627.50   636.88
eigval :      636.99   647.25   647.31   651.09   651.16   653.89
eigval :      653.99   659.27   660.03   668.09   668.21   713.36
eigval :      714.03   722.56   723.19   729.76   730.01   741.00
eigval :      741.73   747.87   748.71   759.82   760.72   770.69
eigval :      770.74   787.36   789.10   798.39   798.40   806.20
eigval :      806.34   812.31   812.41   815.80   819.48   819.66
eigval :      827.96   828.03   836.38   836.61   839.17   839.19
eigval :      842.23   842.31   842.82   842.91   852.51   852.52
eigval :      854.30   854.67   923.57   960.09   960.44   973.17
eigval :      973.26   973.96   977.11   984.84   999.40   999.67
eigval :     1008.70  1012.71  1016.07  1016.94  1031.43  1031.62
eigval :     1063.17  1063.41  1065.57  1066.23  1069.00  1069.64
eigval :     1074.86  1075.34  1082.24  1107.73  1121.78  1122.87
eigval :     1136.09  1145.24  1158.44  1164.98  1179.21  1182.64
eigval :     1184.08  1185.14  1202.17  1205.45  1230.86  1233.75
eigval :     1242.01  1256.25  1260.34  1285.67  1285.89  1305.68
eigval :     1306.07  1339.00  1339.43  1346.98  1347.19  1358.64
eigval :     1364.28  1374.87  1375.33  1383.11  1383.27  1385.95
eigval :     1388.60  1389.01  1396.71  1419.04  1461.77  1464.75
eigval :     1478.73  1480.69  1494.50  1499.68  1505.97  1506.32
eigval :     1509.27  1509.68  1515.36  1515.56  1550.00  1550.43
eigval :     1556.63  1556.90  1560.92  1560.95  1585.89  1585.98
eigval :     1595.03  1595.19  2235.41  2242.14  3077.28  3077.35
eigval :     3078.28  3078.32  3086.02  3086.17  3139.80  3139.83
eigval :     3144.22  3144.58  3154.99  3155.23  3156.35  3156.37
eigval :     3159.41  3159.78  3160.52  3161.21  3168.85  3169.08
eigval :     3171.83  3172.46  3350.26  3350.47  3358.89  3359.11
 reduced masses (amu)
   1: 11.83   2: 11.87   3: 11.77   4: 11.85   5: 11.74   6: 11.46   7: 11.24   8: 11.42
   9: 11.41  10: 11.38  11: 11.39  12: 11.60  13: 11.07  14: 10.90  15: 11.12  16: 11.11
  17: 11.77  18: 10.92  19: 10.92  20: 10.89  21: 10.90  22: 10.77  23: 10.76  24: 11.84
  25: 11.86  26: 12.02  27: 12.01  28: 11.63  29: 11.39  30: 11.39  31: 11.67  32: 11.65
  33: 12.44  34: 12.45  35: 11.28  36: 10.47  37: 10.46  38: 11.42  39: 11.34  40: 11.18
  41: 11.63  42: 11.91  43: 11.99  44: 11.87  45: 10.98  46: 10.97  47: 10.35  48: 10.37
  49: 10.91  50: 10.89  51: 10.92  52: 10.82  53: 11.97  54: 11.97  55:  9.92  56:  9.92
  57: 10.26  58: 10.31  59:  9.91  60:  9.91  61: 11.69  62: 11.71  63: 11.56  64: 11.53
  65: 11.64  66: 11.25  67: 11.25  68: 10.91  69: 10.90  70: 10.66  71: 10.66  72: 10.82
  73: 10.82  74: 10.97  75: 10.97  76:  9.95  77: 10.12  78:  9.89  79: 10.03  80:  4.17
  81:  3.87  82: 11.24  83: 11.25  84: 11.11  85: 11.06  86: 10.52  87: 10.41  88:  2.50
  89:  2.60  90: 10.87  91: 10.81  92: 10.43  93: 10.33  94: 11.10  95: 11.17  96: 11.30
  97: 11.30  98: 11.53  99: 11.57 100:  3.69 101:  3.69 102:  3.86 103:  3.86 104:  4.35
 105:  4.21 106: 11.29 107:  4.42 108:  4.41 109:  3.80 110:  3.80 111:  3.81 112:  3.82
 113:  4.05 114:  4.05 115:  3.66 116:  3.66 117:  3.70 118:  3.69 119:  3.42 120:  3.42
 121:  3.37 122:  3.36 123: 11.26 124:  6.39 125:  6.46 126:  8.58 127:  8.77 128: 10.96
 129: 10.89 130: 11.49 131:  8.79 132:  8.75 133:  8.59 134:  8.18 135:  9.05 136:  8.96
 137: 10.87 138: 10.96 139:  1.94 140:  1.78 141:  2.04 142:  1.89 143:  2.34 144:  2.14
 145:  2.07 146:  1.92 147:  6.71 148:  7.12 149:  5.42 150:  5.27 151:  6.36 152:  7.40
 153:  6.20 154:  6.02 155:  7.38 156:  6.52 157:  5.89 158:  6.12 159:  9.84 160:  9.58
 161:  8.25 162:  8.57 163:  9.49 164:  7.97 165:  8.98 166:  8.59 167:  8.64 168: 11.15
 169: 11.11 170: 10.65 171: 10.65 172: 11.31 173: 11.30 174: 10.57 175: 10.66 176:  9.52
 177:  9.57 178: 11.30 179: 11.29 180: 11.20 181: 10.68 182: 10.50 183: 10.63 184: 11.50
 185: 11.56 186: 11.60 187: 11.43 188: 11.39 189: 11.83 190: 11.92 191: 11.76 192: 11.75
 193: 11.60 194: 11.59 195: 11.46 196: 11.46 197: 11.73 198: 11.73 199: 11.70 200: 11.70
 201: 11.61 202: 11.61 203: 11.72 204: 11.72 205: 11.72 206: 11.72 207: 12.01 208: 12.01
 209:  1.80 210:  1.80 211:  1.80 212:  1.80 213:  1.81 214:  1.81 215:  1.80 216:  1.80
 217:  1.81 218:  1.81 219:  1.98 220:  1.98 221:  1.82 222:  1.82 223:  1.82 224:  1.82
 225:  1.97 226:  1.97 227:  1.96 228:  1.96 229:  1.96 230:  1.96 231:  1.89 232:  1.89
 233:  1.89 234:  1.89
 IR intensities (km·mol⁻¹)
   1:  0.63   2:  1.97   3:  4.70   4:  4.81   5:  4.83   6:  5.62   7:  0.12   8:  0.42
   9:  0.30  10:  1.07  11:  2.73  12:  0.05  13:  0.78  14:  0.78  15:  0.04  16:  0.86
  17:  0.33  18: 46.25  19: 49.56  20:  0.29  21:  0.32  22:  0.07  23:  0.35  24:  0.18
  25:  0.05  26:  0.07  27:  0.31  28:  0.79  29:  0.16  30:  0.19  31:  0.13  32:  0.83
  33: 26.90  34: 21.11  35: 15.27  36:  1.01  37:  0.34  38: 13.81  39:  0.50  40:  1.38
  41:  1.52  42:  0.63  43:  0.16  44:  3.71  45: 18.84  46: 22.94  47:  0.19  48:  0.96
  49: 12.93  50:  9.29  51: 13.56  52:  0.11  53:  0.95  54:  0.59  55:  0.02  56:  0.36
  57:  1.00  58:  0.39  59:  0.40  60:  0.54  61:  0.41  62:  0.42  63:  5.31  64:  2.17
  65: 13.75  66: 11.24  67:  8.02  68:  1.17  69:  0.49  70:  0.26  71:  0.10  72:  0.99
  73:  1.93  74:  1.10  75:  0.18  76:  8.45  77:  5.93  78: 29.55  79: 41.76  80:  3.05
  81:  4.27  82:  1.96  83:  1.43  84:  8.30  85: 11.70  86: 65.38  87: 95.20  88:******
  89:******  90:  5.08  91: 10.59  92: 55.59  93: 66.38  94:  2.63  95:  6.99  96:  8.94
  97:  9.90  98:  2.50  99:  2.08 100: 19.36 101: 21.23 102:  1.72 103:  1.36 104:  6.27
 105:  7.19 106:  0.50 107:  0.48 108:  0.14 109:  1.24 110:  1.90 111:  8.53 112: 12.74
 113: 57.42 114: 62.25 115:  8.05 116: 16.89 117:  4.08 118:  6.82 119:  0.39 120:  1.65
 121:  0.55 122:  0.10 123:  3.26 124:  2.43 125:  1.71 126: 62.51 127: 98.35 128:  0.97
 129: 40.03 130:  2.15 131: 18.12 132:  1.45 133:  0.46 134:  0.76 135: 27.77 136: 18.30
 137: 11.88 138:  8.48 139: 14.48 140:  8.63 141:  0.31 142:  1.29 143:  8.44 144:  6.70
 145:  8.04 146:  0.46 147:  5.75 148:  0.22 149: 56.59 150: 57.50 151: 17.30 152: 11.61
Refinement of some symmetry elements was terminated before convergence was reached.
Some symmetry elements may remain unidentified.
Molecule has no symmetry elements
It seems to be the C1 point group
 153: 22.70 154:  1.25 155:  2.76 156:  1.81 157: 24.41 158:  0.88 159:  8.99 160:  7.35
 161: 15.50 162:  9.19 163: 89.69 164:  2.13 165: 29.51 166:  0.20 167:  1.36 168:  1.63
 169:  2.12 170:  5.44 171: 17.80 172:  1.19 173:  6.96 174:  1.29 175:  6.48 176: 22.75
 177: 38.25 178:  1.71 179:  3.12 180:  0.57 181: 18.51 182:  0.82 183:  4.00 184:  5.05
 185:  1.50 186:  0.20 187:  3.48 188:  0.45 189: 14.35 190: 11.83 191:  3.94 192:  1.66
 193:  4.95 194:  1.49 195: 19.73 196: 29.25 197: 55.82 198: 51.18 199: 17.73 200: 19.62
 201: 25.93 202:  6.46 203:  6.94 204: 27.75 205: 14.55 206: 41.40 207:  6.06 208:  0.24
 209:  9.37 210:  6.52 211:  3.33 212:  4.03 213:  1.62 214: 28.99 215: 29.21 216: 25.44
 217: 38.05 218: 36.81 219:320.68 220: 86.44 221: 43.04 222: 44.52 223: 32.27 224: 29.80
 225: 76.69 226: 71.47 227:222.50 228: 40.66 229: 48.80 230: 55.09 231:171.32 232: 51.26
 233: 69.16 234: 11.63
 Raman intensities (amu)
   1:  0.00   2:  0.00   3:  0.00   4:  0.00   5:  0.00   6:  0.00   7:  0.00   8:  0.00
   9:  0.00  10:  0.00  11:  0.00  12:  0.00  13:  0.00  14:  0.00  15:  0.00  16:  0.00
  17:  0.00  18:  0.00  19:  0.00  20:  0.00  21:  0.00  22:  0.00  23:  0.00  24:  0.00
  25:  0.00  26:  0.00  27:  0.00  28:  0.00  29:  0.00  30:  0.00  31:  0.00  32:  0.00
  33:  0.00  34:  0.00  35:  0.00  36:  0.00  37:  0.00  38:  0.00  39:  0.00  40:  0.00
  41:  0.00  42:  0.00  43:  0.00  44:  0.00  45:  0.00  46:  0.00  47:  0.00  48:  0.00
  49:  0.00  50:  0.00  51:  0.00  52:  0.00  53:  0.00  54:  0.00  55:  0.00  56:  0.00
  57:  0.00  58:  0.00  59:  0.00  60:  0.00  61:  0.00  62:  0.00  63:  0.00  64:  0.00
  65:  0.00  66:  0.00  67:  0.00  68:  0.00  69:  0.00  70:  0.00  71:  0.00  72:  0.00
  73:  0.00  74:  0.00  75:  0.00  76:  0.00  77:  0.00  78:  0.00  79:  0.00  80:  0.00
  81:  0.00  82:  0.00  83:  0.00  84:  0.00  85:  0.00  86:  0.00  87:  0.00  88:  0.00
  89:  0.00  90:  0.00  91:  0.00  92:  0.00  93:  0.00  94:  0.00  95:  0.00  96:  0.00
  97:  0.00  98:  0.00  99:  0.00 100:  0.00 101:  0.00 102:  0.00 103:  0.00 104:  0.00
 105:  0.00 106:  0.00 107:  0.00 108:  0.00 109:  0.00 110:  0.00 111:  0.00 112:  0.00
 113:  0.00 114:  0.00 115:  0.00 116:  0.00 117:  0.00 118:  0.00 119:  0.00 120:  0.00
 121:  0.00 122:  0.00 123:  0.00 124:  0.00 125:  0.00 126:  0.00 127:  0.00 128:  0.00
 129:  0.00 130:  0.00 131:  0.00 132:  0.00 133:  0.00 134:  0.00 135:  0.00 136:  0.00
 137:  0.00 138:  0.00 139:  0.00 140:  0.00 141:  0.00 142:  0.00 143:  0.00 144:  0.00
 145:  0.00 146:  0.00 147:  0.00 148:  0.00 149:  0.00 150:  0.00 151:  0.00 152:  0.00
 153:  0.00 154:  0.00 155:  0.00 156:  0.00 157:  0.00 158:  0.00 159:  0.00 160:  0.00
 161:  0.00 162:  0.00 163:  0.00 164:  0.00 165:  0.00 166:  0.00 167:  0.00 168:  0.00
 169:  0.00 170:  0.00 171:  0.00 172:  0.00 173:  0.00 174:  0.00 175:  0.00 176:  0.00
 177:  0.00 178:  0.00 179:  0.00 180:  0.00 181:  0.00 182:  0.00 183:  0.00 184:  0.00
 185:  0.00 186:  0.00 187:  0.00 188:  0.00 189:  0.00 190:  0.00 191:  0.00 192:  0.00
 193:  0.00 194:  0.00 195:  0.00 196:  0.00 197:  0.00 198:  0.00 199:  0.00 200:  0.00
 201:  0.00 202:  0.00 203:  0.00 204:  0.00 205:  0.00 206:  0.00 207:  0.00 208:  0.00
 209:  0.00 210:  0.00 211:  0.00 212:  0.00 213:  0.00 214:  0.00 215:  0.00 216:  0.00
 217:  0.00 218:  0.00 219:  0.00 220:  0.00 221:  0.00 222:  0.00 223:  0.00 224:  0.00
 225:  0.00 226:  0.00 227:  0.00 228:  0.00 229:  0.00 230:  0.00 231:  0.00 232:  0.00
 233:  0.00 234:  0.00
 output can be read by thermo (or use thermo option).
 writing <g98.out> molden fake output.
 recommended (thermochemical) frequency scaling factor: 1.0
           -------------------------------------------------
          |             Thermodynamic Functions             |
           -------------------------------------------------

c1  symmetry found (for desy threshold:  0.10E+00) used in thermo
 inverting freq            1   5.3893216303213967     

          ...................................................
          :                      SETUP                      :
          :.................................................:
          :  # frequencies                         228      :
          :  # imaginary freq.                       0      :
          :  linear?                             false      :
          :  only rotor calc.                    false      :
          :  symmetry                               c1      :
          :  rotational number                       1      :
          :  scaling factor                  1.0000000      :
          :  rotor cutoff                   50.0000000 cm⁻¹ :
          :  imag. cutoff                  -20.0000000 cm⁻¹ :
          :.................................................:

    mode    ω/cm⁻¹     T·S(HO)/kcal·mol⁻¹    T·S(FR)/kcal·mol⁻¹   T·S(vib)
   ------------------------------------------------------------------------
       1      5.39    -2.75470 (  0.01%)    -1.71642 ( 99.99%)    -1.71656
       2      7.74    -2.54026 (  0.06%)    -1.60920 ( 99.94%)    -1.60974
       3      7.97    -2.52262 (  0.06%)    -1.60039 ( 99.94%)    -1.60098
       4     23.43    -1.88427 (  4.60%)    -1.28109 ( 95.40%)    -1.30884
       5     24.19    -1.86548 (  5.19%)    -1.27168 ( 94.81%)    -1.30251
       6     41.77    -1.54237 ( 32.76%)    -1.10980 ( 67.24%)    -1.25151
       7     42.08    -1.53805 ( 33.41%)    -1.10763 ( 66.59%)    -1.25143
       8     42.56    -1.53140 ( 34.42%)    -1.10429 ( 65.58%)    -1.25130
       9     60.82    -1.32094 ( 68.64%)    -0.99852 ( 31.36%)    -1.21984
      10     62.12    -1.30852 ( 70.43%)    -0.99227 ( 29.57%)    -1.21501
      11     66.42    -1.26913 ( 75.69%)    -0.97241 ( 24.31%)    -1.19701
      12     95.55    -1.05637 ( 93.03%)    -0.86469 (  6.97%)    -1.04300
      13     96.02    -1.05350 ( 93.15%)    -0.86323 (  6.85%)    -1.04047
      14    106.91    -0.99114 ( 95.43%)    -0.83142 (  4.57%)    -0.98384
      15    108.10    -0.98470 ( 95.62%)    -0.82813 (  4.38%)    -0.97785
      16    116.79    -0.94003 ( 96.75%)    -0.80524 (  3.25%)    -0.93565
      17    117.09    -0.93852 ( 96.78%)    -0.80446 (  3.22%)    -0.93420
      18    134.52    -0.85877 ( 98.13%)    -0.76335 (  1.87%)    -0.85698
      19    135.27    -0.85561 ( 98.17%)    -0.76172 (  1.83%)    -0.85389
      20    142.78    -0.82476 ( 98.52%)    -0.74570 (  1.48%)    -0.82358
      21    142.99    -0.82394 ( 98.53%)    -0.74528 (  1.47%)    -0.82278
      22    174.98    -0.70998 ( 99.34%)    -0.68546 (  0.66%)    -0.70981
      23    181.39    -0.68993 ( 99.43%)    -0.67480 (  0.57%)    -0.68985
      24    181.75    -0.68883 ( 99.43%)    -0.67422 (  0.57%)    -0.68875
      25    197.91    -0.64176 ( 99.59%)    -0.64899 (  0.41%)    -0.64179
      26    198.81    -0.63927 ( 99.60%)    -0.64764 (  0.40%)    -0.63930
      27    203.28    -0.62707 ( 99.64%)    -0.64105 (  0.36%)    -0.62712
      28    203.38    -0.62680 ( 99.64%)    -0.64090 (  0.36%)    -0.62685
      29    258.40    -0.49866 ( 99.86%)    -0.56997 (  0.14%)    -0.49876
      30    264.99    -0.48559 ( 99.87%)    -0.56252 (  0.13%)    -0.48568
      31    265.29    -0.48500 ( 99.87%)    -0.56218 (  0.13%)    -0.48510
      32    266.71    -0.48223 ( 99.88%)    -0.56060 (  0.12%)    -0.48233
      33    273.09    -0.47005 ( 99.89%)    -0.55359 (  0.11%)    -0.47014
      34    279.91    -0.45742 ( 99.90%)    -0.54629 (  0.10%)    -0.45751
      35    282.64    -0.45248 ( 99.90%)    -0.54341 (  0.10%)    -0.45257
      36    297.10    -0.42731 ( 99.92%)    -0.52863 (  0.08%)    -0.42739
   ------------------------------------------------------------------------

   temp. (K)  partition function   enthalpy   heat capacity  entropy
                                   cal/mol     cal/K/mol   cal/K/mol   J/K/mol
 298.15  VIB  0.133E+20            24236.465    161.467    151.331
         ROT  0.159E+09              888.752      2.981     40.511
         INT  0.211E+28            25125.217    164.447    191.842
         TR   0.167E+29             1481.254      4.968     45.353
         TOT                       26606.4710   169.4156   237.1949   992.4235

       T/K    H(0)-H(T)+PV         H(T)/Eh          T*S/Eh         G(T)/Eh
   ------------------------------------------------------------------------
    298.15    0.424001E-01    0.611580E+00    0.112699E+00    0.498881E+00
   ------------------------------------------------------------------------

         :::::::::::::::::::::::::::::::::::::::::::::::::::::
         ::                  THERMODYNAMIC                  ::
         :::::::::::::::::::::::::::::::::::::::::::::::::::::
         :: total free energy        -130.228397893627 Eh   ::
         ::.................................................::
         :: total energy             -130.727279207199 Eh   ::
         :: zero point energy           0.569180157285 Eh   ::
         :: G(RRHO) w/o ZPVE           -0.070298843713 Eh   ::
         :: G(RRHO) contrib.            0.498881313572 Eh   ::
         :::::::::::::::::::::::::::::::::::::::::::::::::::::
imag cut-off (cm-1) :    5.00
 found            1  significant imaginary frequency
 writing imag mode distorted coords to xtbhess.xyz
 for further optimization.

optimized geometry written to: xtbopt.xyz


           -------------------------------------------------
          | TOTAL ENERGY             -130.727279207199 Eh   |
          | TOTAL ENTHALPY           -130.115698939509 Eh   |
          | TOTAL FREE ENERGY        -130.228397893627 Eh   |
          | GRADIENT NORM               0.000215188184 Eh/α |
          | HOMO-LUMO GAP               1.401842536940 eV   |
           -------------------------------------------------

------------------------------------------------------------------------
 * finished run on 2021/11/18 at 17:18:11.372     
------------------------------------------------------------------------
 total:
 * wall-time:     0 d,  0 h,  1 min, 18.307 sec
 *  cpu-time:     0 d,  0 h,  1 min, 18.304 sec
 * ratio c/w:     1.000 speedup
 SCF:
 * wall-time:     0 d,  0 h,  0 min,  0.255 sec
 *  cpu-time:     0 d,  0 h,  0 min,  0.255 sec
 * ratio c/w:     1.000 speedup
 ANC optimizer:
 * wall-time:     0 d,  0 h,  0 min, 10.972 sec
 *  cpu-time:     0 d,  0 h,  0 min, 10.968 sec
 * ratio c/w:     1.000 speedup
 analytical hessian:
 * wall-time:     0 d,  0 h,  1 min,  7.013 sec
 *  cpu-time:     0 d,  0 h,  1 min,  7.014 sec
 * ratio c/w:     1.000 speedup

