78
 energy: -130.727279207228 gnorm: 0.000215108670 xtb: 6.4.1 (bd6e46d)
C         3.86163067882214   -1.40082358021213   -3.40930441923667
C         3.02005140993209   -1.11281072338222   -2.39757929299679
C         3.82330841369672   -0.44461267846641   -1.38883487781852
C         3.29955041535816    0.01367119641065   -0.16574164535380
C         4.05672923972028    0.63168058675374    0.84062895423999
C         3.59687405984574    1.09011000890060    2.10483178654156
C         4.66645606830149    1.62832854719131    2.75975753793024
C         5.80169864959278    1.51576505903890    1.90796961451497
N         5.38414636028461    0.90293574088322    0.76600856744409
C         7.08633019335026    1.96279251941804    2.17889089701622
C         8.19568904625457    1.88886684923909    1.34785324378760
C         9.49805711461311    2.41841916119455    1.72630081504064
C        10.31706702924655    2.18151381085657    0.68505130331451
C         9.50995069732940    1.50541873025015   -0.31900466822929
N         8.24093366903502    1.34797308156598    0.11286728683230
C        10.01192573937828    1.08655456701606   -1.54475073538223
C         9.28869138599838    0.43065490444469   -2.52877097299137
C         9.74968075592921   -0.03216793430100   -3.79466695682148
C         8.69605584248832   -0.62182055730955   -4.42773334646347
C         7.56304088230031   -0.53232177148509   -3.56700808580442
N         7.97095973208331    0.10721985460235   -2.43929932448990
C         6.28334704835969   -0.99803180740323   -3.82762454312604
C         5.16593894301319   -0.89805709468982   -3.01107218054959
N         5.10371754081640   -0.33189649484409   -1.78316658768477
H         3.65538545610312   -1.89449904096190   -4.33952524110149
H         1.97083936937692   -1.31792535416035   -2.30720538104872
H         2.58503730638389    1.01023143627289    2.45201239502271
H         4.67838933022812    2.06718325320271    3.73843789169666
H         5.96338538232920    0.68217117354416   -0.03567102055518
H         7.23473881729522    2.43136570005078    3.14195944436905
H         9.71308194183156    2.89810695741098    2.66204153616165
H        11.35701127220386    2.42151114646699    0.57213193663158
H        11.05464954994066    1.28468939479360   -1.74681919903331
H        10.75316917783548    0.07760695498492   -4.15757658807532
H         8.68915423377891   -1.07754981278585   -5.39894906851281
H         7.39540965881311    0.32392520254470   -1.63455471156176
H         6.13765487779511   -1.48596355575480   -4.78156709327432
C         1.92471060964737   -0.13308019132645    0.05867164162449
C         0.72315751769117   -0.22607385225835    0.23036677521887
C        -0.60879283878635   -0.29936304201421    0.39758587143287
C        -1.81818078291686   -0.34281718079491    0.52871905250387
C        -9.43558227363038    2.38446186619141   -0.55539377590737
C       -10.32691836388456    1.52833361073551   -0.02273743208319
C        -9.54968974633249    0.44316421686701    0.55610234896332
C       -10.12277263096521   -0.64277894407332    1.20588816033156
C        -9.42774172261848   -1.69742787056517    1.77699346756686
C        -9.95839336348978   -2.83133212057680    2.45663117810087
C        -8.90791755606252   -3.60509983253873    2.85198014887722
C        -7.70790640563055   -2.96521162924537    2.42392407427660
N        -8.07379533753246   -1.82383631716870    1.78308367145659
C        -6.41143191096159   -3.41605010124698    2.61977804279647
C        -5.23458823896975   -2.80946341581074    2.20425005708673
C        -3.92559772653366   -3.38566397237054    2.46410053827273
C        -3.02662005695546   -2.54462493561710    1.91696596705166
C        -3.79813351224809   -1.46278831237979    1.33098936147801
N        -5.11642248337425   -1.64779794293880    1.51996302726098
C        -3.21270385711357   -0.37559148828940    0.65727742036357
C        -3.93109485421479    0.68979650224184    0.09310062762093
C        -3.40080060729456    1.82031201521119   -0.58574111991927
C        -4.45318074892919    2.60283875990670   -0.96347323256643
C        -5.64922919724263    1.96704132410137   -0.52539198468341
N        -5.28174920705460    0.81859359966675    0.10727930745850
C        -6.94485896538958    2.42574369530596   -0.71084663162228
C        -8.12076111899948    1.81445254967920   -0.29840043632365
N        -8.22859259348457    0.64855264371850    0.37159350555816
H        -9.60931522537017    3.30850399413404   -1.07300427262016
H       -11.39821330305991    1.58998459682171   -0.00344261849014
H       -11.20084180572935   -0.66700979063622    1.27340932501654
H       -11.00328122237050   -3.01616979746180    2.61409161795148
H        -8.94562630913344   -4.53311312991688    3.38896466612967
H        -7.44723781291195   -1.14825534782139    1.36260375582037
H        -6.30626076522754   -4.34941611093419    3.15557884458023
H        -3.75678608030810   -4.30457170851955    2.99201694639854
H        -1.95620637440512   -2.61467879323721    1.89384241785385
H        -2.35617787216860    1.99722374083549   -0.75336439923165
H        -4.41577695210818    3.53334832014312   -1.49572426016061
H        -5.91100820222079    0.14626796488827    0.53026065476713
H        -7.04740158067725    3.36339090117530   -1.23942058076408
