78
 energy: -130.383207668030 gnorm: 0.463670111732 xtb: 6.4.1 (bd6e46d)
C         3.76103400000000   -1.60604100000000   -3.62084000000000
C         2.89033200000000   -1.35464000000000   -2.66701800000000
C         3.60870700000000   -0.69706800000000   -1.57613800000000
C         3.27739700000000   -0.12661100000000   -0.31172600000000
C         4.09697500000000    0.69016400000000    0.47219200000000
C         3.62767400000000    1.90847000000000    1.05489300000000
C         4.65693300000000    2.48870200000000    1.72356400000000
C         5.78643600000000    1.65119300000000    1.57266300000000
N         5.38996400000000    0.62724200000000    0.83707400000000
C         7.03668900000000    1.99991200000000    2.13654800000000
C         8.27920300000000    1.95678900000000    1.55116400000000
C         9.65700600000000    1.97589300000000    1.99698400000000
C        10.46451600000000    1.84645500000000    0.98004900000000
C         9.64490200000000    1.72234900000000   -0.23633400000000
N         8.40872600000000    1.80127300000000    0.21149500000000
C         9.92220700000000    1.48038300000000   -1.56574400000000
C         9.07269500000000    0.82403700000000   -2.51297400000000
C         9.26259900000000    0.90023500000000   -3.90328500000000
C         8.28528900000000    0.19682900000000   -4.51807100000000
C         7.45617000000000   -0.33645100000000   -3.49245800000000
N         8.00157600000000    0.08762500000000   -2.30016200000000
C         6.33919400000000   -1.04195900000000   -3.70898900000000
C         5.03624900000000   -1.16421900000000   -3.25931500000000
N         4.86445700000000   -0.61758700000000   -1.98976700000000
H         3.52537400000000   -2.10839200000000   -4.58004600000000
H         1.81479000000000   -1.54613800000000   -2.60355200000000
H         2.60775100000000    2.31961500000000    0.98367100000000
H         4.57411300000000    3.44283200000000    2.28213800000000
H         6.06445900000000   -0.25629900000000    0.54715500000000
H         7.02949600000000    2.37284800000000    3.17682500000000
H        10.00610500000000    2.07173700000000    3.06166700000000
H        11.55009000000000    1.82580100000000    1.05474900000000
H        10.88224000000000    1.80676100000000   -1.91671800000000
H        10.07729800000000    1.46749700000000   -4.41762500000000
H         8.12932800000000    0.04341500000000   -5.57917800000000
H         7.53472900000000   -0.21231800000000   -1.29883600000000
H         6.40920600000000   -1.85232400000000   -4.58720000000000
C         1.93279200000000   -0.44275200000000    0.05390700000000
C         0.78792700000000   -0.66184500000000    0.34753300000000
C        -0.56561700000000   -0.84500500000000    0.65220900000000
C        -1.74378200000000   -0.92852000000000    0.86871100000000
C        -9.05780300000000    2.74157700000000   -0.70631500000000
C       -10.06833000000000    2.01532900000000   -0.21234300000000
C        -9.57162900000000    0.68244200000000    0.10712500000000
C       -10.07598200000000   -0.49593800000000    0.65603100000000
C        -9.36230300000000   -1.49185300000000    1.40434000000000
C        -9.87451900000000   -2.09574000000000    2.55961300000000
C        -8.94505600000000   -2.93875700000000    3.05321400000000
C        -7.84550400000000   -2.86630600000000    2.21192300000000
N        -8.12799100000000   -1.98465800000000    1.21875900000000
C        -6.68264200000000   -3.57965600000000    2.47918800000000
C        -5.30115100000000   -3.24140300000000    2.46803500000000
C        -4.15154000000000   -3.74343700000000    3.11503300000000
C        -3.13492900000000   -3.00494500000000    2.74156800000000
C        -3.64506500000000   -2.01410400000000    1.83689900000000
N        -4.89195400000000   -2.20533700000000    1.72471600000000
C        -3.20455400000000   -0.93929400000000    1.07260300000000
C        -3.95506100000000    0.11839000000000    0.51491000000000
C        -3.48263300000000    1.43411500000000    0.69426200000000
C        -4.36884900000000    2.24670100000000    0.09750400000000
C        -5.42015700000000    1.48355100000000   -0.46872900000000
N        -5.10245700000000    0.18436300000000   -0.18103300000000
C        -6.48853500000000    2.09745900000000   -1.06915200000000
C        -7.85338600000000    1.91504200000000   -0.72996000000000
N        -8.30770400000000    0.78647200000000   -0.24240900000000
H        -9.10145900000000    3.77887600000000   -1.03736000000000
H       -11.09216700000000    2.32906700000000   -0.04499400000000
H       -11.13797000000000   -0.69571500000000    0.55750200000000
H       -10.88978000000000   -1.90226300000000    2.99545800000000
H        -9.03599400000000   -3.56462600000000    3.94105000000000
H        -7.43369800000000   -1.75066100000000    0.35092500000000
H        -6.69259200000000   -4.55343400000000    2.77901200000000
H        -4.24512800000000   -4.58612200000000    3.76680400000000
H        -2.09979000000000   -3.07984100000000    3.03082400000000
H        -2.56300900000000    1.77649900000000    1.21037600000000
H        -4.20174300000000    3.33696300000000    0.08764500000000
H        -5.67738600000000   -0.71055700000000   -0.51429500000000
H        -6.35277900000000    2.80791500000000   -1.85855500000000
78
 energy: -130.516863726042 gnorm: 0.228814884959 xtb: 6.4.1 (bd6e46d)
C         3.75771840282761   -1.62036405486726   -3.62367156157104
C         2.87651734248800   -1.35525573969994   -2.64856439191332
C         3.63120607516669   -0.70065920910506   -1.57413154763774
C         3.26604895202331   -0.14220099051052   -0.32319528607410
C         4.08786874632722    0.69248305112235    0.47357664834977
C         3.61337405335509    1.89918824872678    1.06699853564148
C         4.64880374472656    2.48505205419729    1.73979429096838
C         5.79145390146392    1.66167743187436    1.57467241740748
N         5.40377940938940    0.62012349648480    0.81176614903344
C         7.04876691118423    1.99205639132391    2.14343834918136
C         8.28290019720138    1.93597233615585    1.53463796362147
C         9.65872751595668    1.98638852493818    2.01952855787415
C        10.47780422073205    1.85774921837553    0.97440392862195
C         9.62565010574152    1.71103186224327   -0.22307536506232
N         8.36492059149068    1.76254161449210    0.19125839255229
C         9.92323543615285    1.47336124659884   -1.56104700652942
C         9.07861191455419    0.84273193902418   -2.50169737920165
C         9.27730497583002    0.90460622748615   -3.90578191292801
C         8.29786827072294    0.18108255460864   -4.51427301851874
C         7.46056873198830   -0.34557500600316   -3.48874457993200
N         7.98012074388349    0.09413390244456   -2.28993329938618
C         6.32642156794245   -1.08584917974526   -3.73034788128315
C         5.04399824454087   -1.16002641334777   -3.21418683478139
N         4.89729484413793   -0.59487132137954   -1.96751822330785
H         3.52950599147965   -2.10365506047427   -4.57457677001914
H         1.81391897666213   -1.54500067528744   -2.60371909643522
H         2.61352351406627    2.30822614193717    0.97827674609575
H         4.58366928031544    3.42934042043661    2.27499952492453
H         6.03486692881725   -0.21063148766283    0.54810856009280
H         7.02863643642267    2.37788480176399    3.16707971973784
H         9.99291133989975    2.07276731856918    3.05785369976190
H        11.55393083926185    1.82514330489614    1.04018959728972
H        10.88688069328806    1.80068624410556   -1.91859241479463
H        10.06787747907910    1.46302764016305   -4.40785329778775
H         8.13091597935749    0.04191231597969   -5.57028327665625
H         7.55049857594867   -0.18335485711600   -1.34731803491019
H         6.41134942701439   -1.80957994417677   -4.60862618560287
C         1.93407473833728   -0.42762683069399    0.05881187343631
C         0.77263298738568   -0.65654924739433    0.34756269085233
C        -0.55320084632312   -0.83657684376163    0.64298726582790
C        -1.74431878296609   -0.90357898463046    0.88464633488278
C        -9.06020915937984    2.74000556503738   -0.72372872593918
C       -10.07682600322822    2.00850287464758   -0.22323098059217
C        -9.54666529217193    0.67325769066506    0.09628342654693
C       -10.07686594471324   -0.48922934671667    0.65206196687573
C        -9.36942632536838   -1.48171664485599    1.39109932466585
C        -9.89633417650933   -2.09771121247942    2.54862641520691
C        -8.95529564582121   -2.95259099214645    3.04491753730646
C        -7.83307071725884   -2.87050204076473    2.20436450495769
N        -8.11295985347220   -1.96858832604485    1.21736456150403
C        -6.66787185938640   -3.59183447247312    2.47652683476927
C        -5.32266000883681   -3.22930873919728    2.44117559716375
C        -4.16137569916027   -3.75755948328769    3.10874613796891
C        -3.11878284602920   -3.00424323761029    2.73458839026893
C        -3.65224958804122   -2.01323257143017    1.81599024234472
N        -4.94663556492186   -2.17820044915503    1.70456143819529
C        -3.16559510524224   -0.94729420278731    1.06117136467669
C        -3.93040291287288    0.11521247954244    0.51421844690504
C        -3.46257245884588    1.43554791255319    0.68155893346546
C        -4.35688910403342    2.26048294770202    0.07543040713343
C        -5.41294459542552    1.48365141161916   -0.46765188663599
N        -5.10849594140764    0.17895186606889   -0.16293526935616
C        -6.51665272938052    2.09492684140447   -1.07479497641994
C        -7.86290444330321    1.88294054435411   -0.73121102622611
N        -8.25267436010257    0.72442180515975   -0.21594945618592
H        -9.10073000729025    3.77593911105542   -1.03478199520424
H       -11.09126123280031    2.33101136350428   -0.04490682495476
H       -11.14405084097760   -0.67017912027021    0.58198013507835
H       -10.87727063728251   -1.89809467357898    2.98489035605517
H        -9.03350194034568   -3.56001885119736    3.93461270381453
H        -7.46267000613085   -1.74612970293848    0.40053926906178
H        -6.71847352721138   -4.58735204240942    2.82782448930028
H        -4.23788403163439   -4.59304147767775    3.77520331204510
H        -2.09045980768633   -3.07952378442511    3.03406412250838
H        -2.57137525448079    1.76250509382228    1.20816195515777
H        -4.22423522232150    3.33591300037964    0.07773341310953
H        -5.65810839653592   -0.66868413223797   -0.48434558218812
H        -6.35225721826349    2.84395455407660   -1.83422344420405
78
 energy: -130.577813066601 gnorm: 0.075091509300 xtb: 6.4.1 (bd6e46d)
C         3.76819939837301   -1.63090067772764   -3.61320021643858
C         2.88293024126046   -1.35367923874404   -2.62467873583781
C         3.65783425882053   -0.70033540759041   -1.56537562224637
C         3.25012721118759   -0.15696926961595   -0.32879716916673
C         4.07528094671332    0.69726197737298    0.47974796195336
C         3.59974947559763    1.88643104871722    1.08025095263188
C         4.64026912712258    2.47566304421294    1.75667168173381
C         5.79046353849977    1.67173755482862    1.57634908771382
N         5.41389667721458    0.61793935095554    0.78228232750996
C         7.05665186689014    1.97941777404082    2.14891081889305
C         8.28279222954677    1.90196032226564    1.51573821939105
C         9.65247566642015    1.99236335933683    2.02984241021703
C        10.47504675912959    1.86586336862578    0.96474310342655
C         9.60517325697103    1.68824634948913   -0.20953541125029
N         8.32796196322141    1.70164987198324    0.17605354899654
C         9.92097917670996    1.46113288919958   -1.55658389780840
C         9.08005490059940    0.85789321604790   -2.49374636600080
C         9.28737641004508    0.90225567838926   -3.90640413191504
C         8.30907467097088    0.16210258408967   -4.50692044323243
C         7.45931224332041   -0.35194643187924   -3.48668365537550
N         7.95359192809901    0.10206953775960   -2.28567424049499
C         6.31783483517095   -1.12232811294880   -3.76478148404083
C         5.06255614272471   -1.14593314657942   -3.15998081869020
N         4.93277161361811   -0.58141641309952   -1.93863662632716
H         3.54710355981202   -2.09479840676433   -4.55959568858551
H         1.82642796597755   -1.54128107082825   -2.60083373993010
H         2.61348788175251    2.29175488621611    0.97667384636116
H         4.59537440979386    3.41378241782983    2.27395101983238
H         5.99970154013191   -0.15068151508043    0.54105648257504
H         7.02645188847524    2.38578995075319    3.15496433507773
H         9.96867667414835    2.07989651627036    3.04956945089642
H        11.54676286603472    1.83049527481513    1.01474776675269
H        10.88633079589978    1.79284571414281   -1.91828752648965
H        10.06051224378268    1.45692220200052   -4.39719588596155
H         8.13677730787842    0.03501739690245   -5.55981040199787
H         7.56446829034310   -0.14190465426780   -1.40284627294986
H         6.40754908587600   -1.75964863634613   -4.63248462470636
C         1.92727125495779   -0.40633739498590    0.06304499698541
C         0.75982081833874   -0.64569071709721    0.34539568515527
C        -0.54077370537668   -0.81993387621736    0.64133460343769
C        -1.73755631539576   -0.87951456414892    0.89323206897052
C        -9.05493526537619    2.71929491837032   -0.74611863376128
C       -10.07271587489312    1.98646442202154   -0.23817548347075
C        -9.51579284661180    0.66049305741555    0.08455326036015
C       -10.07554136581174   -0.48264499952901    0.65528522207604
C        -9.37531613584174   -1.47558704289153    1.37973714328503
C        -9.91521311984689   -2.10865747986052    2.53200698064024
C        -8.96936411812842   -2.96878082219664    3.02903431281175
C        -7.82607866897342   -2.87992718842345    2.19768837640929
N        -8.09751240762803   -1.95160173127655    1.22345280116396
C        -6.65855017955586   -3.60902394880602    2.47823944030622
C        -5.34060353949317   -3.21390459525688    2.40584511073052
C        -4.17373932431370   -3.76465491760955    3.08781495388099
C        -3.11956646020468   -3.00311712828413    2.71276047641524
C        -3.66709500017827   -2.00975142179623    1.79184628034038
N        -4.98980988253062   -2.14996486727525    1.67878603699460
C        -3.12118402774257   -0.95285490704406    1.05461497262004
C        -3.90319582472134    0.11886404710008    0.51305760887691
C        -3.44311005976550    1.43984257061349    0.66034629691680
C        -4.34552641506625    2.27298095464007    0.05003790255169
C        -5.40161266867902    1.48556668959096   -0.46719930784274
N        -5.11094135834172    0.17830913825766   -0.14162122548092
C        -6.54017771969451    2.09025302087069   -1.07174737057147
C        -7.86701963261051    1.84624942905598   -0.72843246453450
N        -8.20032194405681    0.66656768696043   -0.18545455006516
H        -9.08918202841886    3.75583983663744   -1.03716061231202
H       -11.07962671533002    2.31636917662503   -0.04732535388117
H       -11.15061078936171   -0.63118774896722    0.62458108729419
H       -10.86875047498262   -1.89830305449112    2.96995592087946
H        -9.03451177059593   -3.55810230639309    3.92361147616627
H        -7.49262183406781   -1.73363035711792    0.46169839883902
H        -6.76174819489532   -4.60283771489156    2.89604766451580
H        -4.22758785802425   -4.59031695324549    3.77372714505056
H        -2.09581930530616   -3.07540941379568    3.02656466770775
H        -2.57266901207368    1.74987096265973    1.20022149145748
H        -4.25083047975249    3.33884320288043    0.05834634572623
H        -5.63766569612876   -0.62105949136006   -0.44412709198811
H        -6.34424310165382    2.88831822448872   -1.78561768917385
78
 energy: -130.607074585843 gnorm: 0.052870917743 xtb: 6.4.1 (bd6e46d)
C         3.79741800296899   -1.63765730459264   -3.58122466594120
C         2.91214628031087   -1.35598604926510   -2.59505023807310
C         3.68714082746271   -0.69970489978290   -1.54279453780380
C         3.24774083099368   -0.15348889027433   -0.32488555167540
C         4.06268164873361    0.71052512785339    0.48576612980196
C         3.58203455276415    1.87939204539778    1.10344119380186
C         4.62644193159136    2.46845295151262    1.77935902961576
C         5.77829249651150    1.68053981277278    1.57900521802333
N         5.40529135065238    0.63831203143701    0.76338528825418
C         7.05027714671448    1.96357944111312    2.14810086905849
C         8.26783135569633    1.85417549138981    1.50380748969655
C         9.63326036171046    1.98610992263683    2.02032546952641
C        10.45515156252041    1.86319566708731    0.95151786348259
C         9.58446579056535    1.64609579674329   -0.20844105855227
N         8.30318898395321    1.61566849106208    0.17046374789896
C         9.91607495116751    1.44484927474228   -1.55690613195066
C         9.07949950552451    0.86415327171781   -2.50319014144908
C         9.29688429090648    0.89234802540695   -3.91301072207684
C         8.32441595281138    0.14230008223135   -4.50920669158205
C         7.46302654553312   -0.35694290960897   -3.49261255901218
N         7.94020477216866    0.11952556607056   -2.30056803622116
C         6.32520009436060   -1.13592177554149   -3.77401461820273
C         5.09408390891742   -1.14719150478863   -3.11635107817812
N         4.96936960171550   -0.58138126970959   -1.90401778036293
H         3.57985337646637   -2.08592231317548   -4.53495538278246
H         1.85203934238328   -1.53421212760091   -2.58441005198644
H         2.59472873442926    2.27688358000122    0.99109910519941
H         4.59840202615056    3.40719056769614    2.29287048533684
H         6.00039752775633   -0.12536252791473    0.50071301019205
H         7.02578698562496    2.40062112398593    3.14069158842286
H         9.93524835958425    2.09954033283044    3.04328217359094
H        11.52964837528324    1.85060673789267    0.98035203409890
H        10.88281145562982    1.78224237767972   -1.91023267096101
H        10.06905725740804    1.45181477328458   -4.39798482994205
H         8.15438603396860    0.01294209455346   -5.55995521537777
H         7.54095462640280   -0.09313448368694   -1.40482374514181
H         6.38410687872583   -1.69043218623066   -4.71359727015537
C         1.92506781521980   -0.38181700791941    0.05887889528981
C         0.76046443804320   -0.62132374465083    0.34471042650409
C        -0.53347771927403   -0.79417289845657    0.64680606852783
C        -1.72644720317994   -0.84528098036155    0.91477542350355
C        -9.03755526971066    2.67439380767908   -0.77013490613478
C       -10.05269083050245    1.94460821842536   -0.25774918438905
C        -9.48530221786990    0.63265146525732    0.08062135223463
C       -10.07305727866649   -0.48343097385323    0.67179284605999
C        -9.38607828778869   -1.48252347727978    1.38520627044431
C        -9.93780126338744   -2.13342483169043    2.51971486726031
C        -8.99527258134344   -2.99362526343850    3.01730883170862
C        -7.83958407750583   -2.89521450737891    2.20394436555811
N        -8.10101036194198   -1.94636957523765    1.24744272924324
C        -6.67362269470892   -3.62352494892073    2.49162933152228
C        -5.35966372747636   -3.21015389082350    2.37255272880132
C        -4.18725081318902   -3.76374511130475    3.05088695382402
C        -3.13657280885389   -2.99945636890090    2.67281603082589
C        -3.68989080085105   -2.00413780780194    1.75844485530436
N        -5.01879582437305   -2.14146736530181    1.64280218426578
C        -3.10774201717673   -0.94730487202738    1.04536550628774
C        -3.87941753193339    0.13728509701437    0.50859301255193
C        -3.41455352179140    1.45558375788929    0.63096763032089
C        -4.32414797120576    2.28851333370991    0.02291420186073
C        -5.38349859644377    1.49727508098423   -0.46576440098044
N        -5.09778590140938    0.19653681442381   -0.12346104940522
C        -6.53627980227123    2.09177884571828   -1.05765946368647
C        -7.85162459224784    1.80690210695931   -0.72676675858541
N        -8.16647298471993    0.62115539300904   -0.17524828522683
H        -9.06561978505861    3.71336366456463   -1.05266017978867
H       -11.05760314677670    2.27754007844941   -0.05901641688512
H       -11.16079815744548   -0.57300897629376    0.69633737171511
H       -10.88684081674572   -1.90676658567097    2.95685051065026
H        -9.05337148144289   -3.57467373423125    3.91541796811647
H        -7.48083067326607   -1.69141385591408    0.49994235408135
H        -6.80245478767124   -4.59573325241893    2.97924121806870
H        -4.22349873319885   -4.57993957939450    3.75279356784811
H        -2.11335533536783   -3.06339513039264    2.99818113162458
H        -2.54825582866754    1.75346612212006    1.18295819423758
H        -4.26553624042543    3.35763337008950    0.02725714170923
H        -5.64362384502997   -0.60105944387995   -0.39519478534708
H        -6.33769046841208    2.95055268232337   -1.71005725809449
78
 energy: -130.632245994035 gnorm: 0.041855663227 xtb: 6.4.1 (bd6e46d)
C         3.83208792905309   -1.63986006344117   -3.54798996569230
C         2.94943554170819   -1.35782996753736   -2.56330852991310
C         3.72324097527798   -0.70465919504752   -1.51372830518450
C         3.25129090769291   -0.14724480095691   -0.31951087974343
C         4.05104882538763    0.72580086686503    0.49242842102926
C         3.56212084037524    1.87439093991351    1.13242763214584
C         4.60907368173551    2.46180100159054    1.80721135732613
C         5.76314762146706    1.68974909880347    1.58275294144716
N         5.39299974649137    0.66411542081937    0.74623974678839
C         7.03903560488808    1.94788188007320    2.14418258510776
C         8.24758411415954    1.79203759359894    1.49338109452195
C         9.60773907059535    1.97500412423957    2.00578216608352
C        10.42837239535304    1.85719416370963    0.93644501051703
C         9.56174486432032    1.58919623577308   -0.20923791459609
N         8.28071358128486    1.51235477616675    0.16875459743908
C         9.90863417529320    1.42348573504488   -1.55738962661102
C         9.07669643283004    0.86760148492151   -2.51866264016075
C         9.31018567881043    0.87954733212304   -3.92423644794573
C         8.34534557167637    0.12531316697476   -4.52031408807588
C         7.46310316599713   -0.35198451402261   -3.50960526781918
N         7.92621722937833    0.13821527351675   -2.32530476889622
C         6.32674886295002   -1.12184197291867   -3.79625722122096
C         5.12918575970339   -1.14018212561342   -3.08141251682103
N         5.01345895437577   -0.59342689719403   -1.86537919895808
H         3.62155296759716   -2.08026632690415   -4.50660822770491
H         1.88669811559979   -1.52861911137433   -2.55895958252565
H         2.56872593120613    2.25822466691798    1.01972204155422
H         4.59542239673885    3.39812724738731    2.32635755297272
H         5.99899081785001   -0.08831297167343    0.45019719042097
H         7.02746423693894    2.41823544478344    3.12168296575445
H         9.89200967879536    2.12401783354160    3.03322465661142
H        11.50562292693483    1.87752568021100    0.93850907573215
H        10.87646624894849    1.76982407002383   -1.89729501256897
H        10.08845655161989    1.44015295040671   -4.40145489781268
H         8.18427382912386   -0.01434206857141   -5.56992119062422
H         7.51101702269457   -0.03247371222505   -1.41801874182170
H         6.35689594614727   -1.63553208664565   -4.74561029984570
C         1.92244413821925   -0.35052140019534    0.04977373031012
C         0.76235736010155   -0.58683243984175    0.35115589411000
C        -0.53021835129292   -0.76224159625124    0.66321516836823
C        -1.72144375982749   -0.82254519289760    0.92488479553389
C        -9.01370131251152    2.62298413077460   -0.79261292539651
C       -10.02707018842538    1.89547799589015   -0.27693699795019
C        -9.45151416375373    0.59877552322993    0.07852769298145
C       -10.06870917881986   -0.48163301301285    0.70249943223491
C        -9.39860054723063   -1.49096749805411    1.39954827763723
C        -9.96543417942352   -2.16628669069872    2.51173106069418
C        -9.02893001578543   -3.02649908173274    3.00725664949606
C        -7.85641873906787   -2.90842005002211    2.21762573986650
N        -8.10930705019681   -1.94233599162421    1.27965433310342
C        -6.69201648727308   -3.62785343161690    2.51437852646579
C        -5.38257494707534   -3.20586482249066    2.33783313265485
C        -4.20426053720600   -3.75914517736015    3.00764110006106
C        -3.15925505434192   -2.99283723834246    2.62321067968221
C        -3.71994976745973   -1.99673941918651    1.71714528875968
N        -5.05060474784860   -2.14043777988247    1.59698220861805
C        -3.10414932948929   -0.93557894105877    1.04080443056674
C        -3.85522155801467    0.16340668724004    0.50652900874867
C        -3.37807315055903    1.47957720980343    0.59846735347466
C        -4.29221443037000    2.30918934726345   -0.00674731371931
C        -5.36160728402945    1.51514186377763   -0.46061248143720
N        -5.08144056898865    0.22223461437052   -0.10074680144512
C        -6.52402055260696    2.10042699982243   -1.03071374021149
C        -7.82910349893123    1.76427806341366   -0.72624919224406
N        -8.13513218460233    0.57362902494307   -0.17540078446496
H        -9.03550927010285    3.66038715057794   -1.07943651392977
H       -11.03305735164444    2.22505653651562   -0.07900688781750
H       -11.15824742668248   -0.50967874096995    0.77192842394009
H       -10.91799184374357   -1.93086868288029    2.93954529316032
H        -9.08372538420535   -3.60901048846164    3.90352156668153
H        -7.47111376111279   -1.64092615592564    0.55283566747436
H        -6.83734608012948   -4.56958854387525    3.05735447691904
H        -4.22045059269045   -4.56826297885957    3.71940471917855
H        -2.13578361853894   -3.04912282525833    2.95417284960343
H        -2.50736619866906    1.76394300844132    1.15197217795398
H        -4.26674922837866    3.38028207617211   -0.01823953130275
H        -5.65365572055867   -0.57867232602558   -0.33244554397186
H        -6.33564163773227    3.00486110100841   -1.62015567529837
78
 energy: -130.652278918313 gnorm: 0.035425300704 xtb: 6.4.1 (bd6e46d)
C         3.86638984606835   -1.64147183529189   -3.51774771983427
C         2.98611070954457   -1.36283362980403   -2.53381600713979
C         3.75623960404694   -0.71308655422748   -1.48341794991874
C         3.25661323223083   -0.13620222153998   -0.31280085615125
C         4.04061174353042    0.74156878406851    0.49929191804537
C         3.54204539415909    1.87349484086967    1.16544834408412
C         4.58993041657372    2.45759501771042    1.83804451655298
C         5.74845370061411    1.69812890969913    1.58650831229877
N         5.38070172627114    0.69028887770759    0.73247434780268
C         7.02547959974239    1.93789125703209    2.13721909213210
C         8.22689032316221    1.73199503944579    1.48634075041721
C         9.58120083535329    1.96172422480669    1.99046044616379
C        10.40074356951173    1.84866696498353    0.92321446727296
C         9.54185895591679    1.53264236040675   -0.21223085594881
N         8.26472107692477    1.41417358418632    0.17125451592482
C         9.90055107166040    1.40365173314688   -1.55824451450268
C         9.07390438327960    0.86912744958764   -2.53457146320553
C         9.32509851950226    0.86624732068430   -3.93677205816570
C         8.36487322975903    0.11172558678277   -4.53402548771763
C         7.46659349171290   -0.34838302950849   -3.52537998048851
N         7.91596084061301    0.15705305198238   -2.34682084122560
C         6.33131217512148   -1.10731318727220   -3.80892696748074
C         5.16417128895580   -1.14527517070306   -3.05045523721304
N         5.05173105750958   -0.60757304701903   -1.83026393417750
H         3.66466423253910   -2.07805303342095   -4.47966283440948
H         1.92285326847894   -1.52890340686673   -2.52770560584751
H         2.53969645092725    2.24035049090679    1.06512516462071
H         4.58239910034163    3.38553707077181    2.37406783174969
H         5.99373455449503   -0.04367063658192    0.39938033747490
H         7.03218715889663    2.43639231805931    3.10036946509857
H         9.84908745272915    2.14876427079138    3.01806907947946
H        11.47761862315330    1.90750073908535    0.90138201901727
H        10.87011345492411    1.75790028709083   -1.88159842760945
H        10.11559290001271    1.41792944222281   -4.40801706307695
H         8.21828073380460   -0.04855910488786   -5.58355399004789
H         7.48533038948424    0.02604797907533   -1.43733040143085
H         6.31631828845121   -1.56566135477223   -4.80340725389540
C         1.91799351334204   -0.31981511854402    0.03829426514869
C         0.76370301526314   -0.55374610066258    0.35865564339795
C        -0.53033631575265   -0.73915638089413    0.67329708974704
C        -1.71930423497464   -0.80041536850045    0.94567955441766
C        -8.99012954888011    2.57668602010235   -0.81232042722450
C       -10.00277177041536    1.85074544987582   -0.29457228331527
C        -9.42378160614234    0.56553528177665    0.07558416173771
C       -10.06413810330399   -0.47852224462671    0.73813830846234
C        -9.41106986630671   -1.49794098895400    1.42248531006335
C        -9.99444905488776   -2.19994320014646    2.51237659590194
C        -9.06306642635245   -3.06015144430808    3.00452488689621
C        -7.87386974822104   -2.91578665145004    2.23714357678033
N        -8.11965525645720   -1.93702591649759    1.31521562917453
C        -6.70864457809808   -3.62090573867429    2.53910575818106