 Entering Gaussian System
 *********************************************
 Gaussian 98:
 frequency output generated by the xtb code
 *********************************************
                         Standard orientation:
 --------------------------------------------------------------------
  Center     Atomic     Atomic              Coordinates (Angstroms)
  Number     Number      Type              X           Y           Z
 --------------------------------------------------------------------
    1         26             0       28.599817    0.004093   -0.012361
    2          6             0       31.101395   -3.383453    0.012908
    3          6             0       32.092526   -2.461389    0.013595
    4          6             0       31.450530   -1.182696    0.004789
    5          6             0       32.125311    0.041825    0.000289
    6          6             0       31.424720    1.251623   -0.006302
    7          6             0       32.039237    2.543757   -0.007174
    8          6             0       31.028598    3.444397   -0.009313
    9          6             0       29.804324    2.696480   -0.010550
   10          7             0       30.067838    1.351827   -0.008824
   11          6             0       28.562091    3.300161   -0.013705
   12          6             0       27.334718    2.667341   -0.018751
   13          6             0       26.090813    3.386424   -0.024737
   14          6             0       25.103974    2.462441   -0.031680
   15          6             0       25.747912    1.180891   -0.029356
   16          7             0       27.105535    1.319288   -0.021306
   17          6             0       25.091045   -0.033466   -0.034599
   18          6             0       25.773697   -1.233521   -0.029650
   19          6             0       25.157318   -2.528547   -0.032799
   20          6             0       26.163674   -3.431213   -0.023197
   21          6             0       27.391875   -2.685674   -0.014620
   22          7             0       27.133949   -1.342847   -0.019123
   23          6             0       28.632460   -3.292079   -0.003247
   24          6             0       29.861442   -2.661925    0.003221
   25          7             0       30.096135   -1.311918   -0.001064
   26          1             0       31.182426   -4.453283    0.017972
   27          1             0       33.154876   -2.609660    0.019166
   28          1             0       33.098184    2.714721   -0.005573
   29          1             0       31.086705    4.515729   -0.010134
   30          1             0       28.550537    4.380971   -0.013432
   31          1             0       26.008442    4.456380   -0.023952
   32          1             0       24.041476    2.611076   -0.037670
   33          1             0       24.012176   -0.044990   -0.042049
   34          1             0       24.098269   -2.699906   -0.041036
   35          1             0       26.104203   -4.502681   -0.022012
   36          1             0       28.644019   -4.372883    0.000070
   37         26             0       83.096612    0.039154   -0.011275
   38          6             0       80.604237    3.381401    0.581623
   39          6             0       79.610592    2.476208    0.421056
   40          6             0       80.249135    1.214912    0.200222
   41          6             0       79.571211    0.009415   -0.003967
   42          6             0       80.268419   -1.184742   -0.209262
   43          6             0       79.650321   -2.456977   -0.425364
   44          6             0       80.658433   -3.345721   -0.587760
   45          6             0       81.884758   -2.610529   -0.469895
   46          7             0       81.625020   -1.285582   -0.236316
   47          6             0       83.125245   -3.206168   -0.588119
   48          6             0       84.354291   -2.584233   -0.490336
   49          6             0       85.596156   -3.293140   -0.630533
   50          6             0       86.585540   -2.385092   -0.474936
   51          6             0       85.945193   -1.123450   -0.239859
   52          7             0       84.587210   -1.257887   -0.253053
   53          6             0       86.605427    0.069875   -0.024862
   54          6             0       85.926121    1.251309    0.196311
   55          6             0       86.546122    2.523662    0.428178
   56          6             0       85.542253    3.413871    0.593781
   57          6             0       84.311936    2.683505    0.462292
   58          7             0       84.566145    1.361848    0.220759
   59          6             0       83.072996    3.283811    0.569818
   60          6             0       81.842268    2.667216    0.457325
   61          7             0       81.603913    1.338485    0.222391
   62          1             0       80.526088    4.435219    0.767314
   63          1             0       78.548644    2.625205    0.446938
   64          1             0       78.590906   -2.623778   -0.446914
   65          1             0       80.597316   -4.401084   -0.771076
   66          1             0       83.133824   -4.270321   -0.777291
   67          1             0       85.675539   -4.346017   -0.822210
   68          1             0       87.647593   -2.532546   -0.511391
   69          1             0       87.684332    0.079383   -0.029375
   70          1             0       87.605684    2.689733    0.456102
   71          1             0       85.604699    4.467650    0.786775
   72          1             0       83.064390    4.347587    0.761094
   73          6             0       33.521701    0.055595    0.002172
   74          6             0       34.739374    0.063844    0.001952
   75          6             0       36.081690    0.069469    0.001047
   76          6             0       37.299476    0.071620   -0.000571
   77          6             0       47.148095    0.048727   -0.021575
   78          6             0       48.365934    0.046147   -0.021524
   79          6             0       49.707570    0.044508   -0.021561
   80          6             0       50.925406    0.043431   -0.020852
   81          6             0       60.771181    0.043454   -0.019935
   82          6             0       61.989006    0.040730   -0.020494
   83          6             0       63.330630    0.036698   -0.021311
   84          6             0       64.548461    0.031727   -0.020805
   85          6             0       74.396854   -0.009093   -0.006120
   86          6             0       75.614567   -0.009137   -0.004129
   87          6             0       76.957011   -0.006312   -0.003389
   88          6             0       78.174624   -0.001034   -0.003228
   89         26             0       42.224191    0.060521   -0.013011
   90          6             0       39.749952   -3.325463    0.379231
   91          6             0       38.750519   -2.417871    0.277621
   92          6             0       39.381189   -1.142011    0.130932
   93          6             0       38.695348    0.069383   -0.003556
   94          6             0       39.386449    1.277261   -0.141587
   95          6             0       38.761380    2.556234   -0.285091
   96          6             0       39.764779    3.458785   -0.392438
   97          6             0       40.994560    2.724842   -0.313706
   98          7             0       40.741815    1.386729   -0.159511
   99          6             0       42.231637    3.333718   -0.389185
  100          6             0       43.466216    2.718883   -0.323181
  101          6             0       44.699390    3.446056   -0.411353
  102          6             0       45.698556    2.538248   -0.308799
  103          6             0       45.067387    1.262984   -0.159178
  104          7             0       43.712753    1.379645   -0.168909
  105          6             0       45.752788    0.051876   -0.020445
  106          6             0       45.062041   -1.155979    0.119993
  107          6             0       45.687632   -2.434463    0.265514
  108          6             0       44.684499   -3.337536    0.371042
  109          6             0       43.454536   -2.604209    0.289426
  110          7             0       43.706915   -1.266024    0.135371
  111          6             0       42.217280   -3.212902    0.361631
  112          6             0       40.982917   -2.597697    0.293685
  113          7             0       40.736027   -1.258275    0.141349
  114          1             0       39.678706   -4.389057    0.500921
  115          1             0       37.689586   -2.574422    0.297900
  116          1             0       37.701106    2.717988   -0.299496
  117          1             0       39.698208    4.522706   -0.513848
  118          1             0       42.233782    4.407545   -0.512957
  119          1             0       44.771160    4.509377   -0.535033
  120          1             0       46.759580    2.694245   -0.329969
  121          1             0       46.747961   -2.595671    0.281754
  122          1             0       44.751572   -4.401376    0.492896
  123          1             0       42.214642   -4.286811    0.484641
  124         26             0       55.848296    0.043662   -0.020008
  125          6             0       53.381199   -3.347432    0.380125
  126          6             0       52.380145   -2.442236    0.272992
  127          6             0       53.008685   -1.165799    0.122474
  128          6             0       52.320695    0.043356   -0.020357
  129          6             0       53.008569    1.252623   -0.162886
  130          6             0       52.379855    2.528961   -0.313546
  131          6             0       53.380773    3.434316   -0.420519
  132          6             0       54.612495    2.704523   -0.334479
  133          7             0       54.363424    1.366155   -0.176388
  134          6             0       55.848098    3.316528   -0.407243
  135          6             0       57.083821    2.704689   -0.335068
  136          6             0       58.315450    3.434575   -0.421755
  137          6             0       59.316500    2.529395   -0.314388
  138          6             0       58.687945    1.253058   -0.163063
  139          7             0       57.333071    1.366430   -0.176393
  140          6             0       59.375899    0.043962   -0.019792
  141          6             0       58.688017   -1.165210    0.123638
  142          6             0       59.316757   -2.441445    0.275092
  143          6             0       58.315849   -3.346809    0.382099
  144          6             0       57.084123   -2.617120    0.295320
  145          7             0       57.333173   -1.278792    0.136820
  146          6             0       55.848520   -3.229218    0.367169
  147          6             0       54.612814   -2.617439    0.294307
  148          7             0       54.363553   -1.279114    0.136203
  149          1             0       53.311828   -4.410700    0.505605
  150          1             0       51.319453   -2.600720    0.291487
  151          1             0       51.319143    2.687268   -0.332118
  152          1             0       53.311240    4.497573   -0.546005
  153          1             0       55.847979    4.389951   -0.534376
  154          1             0       58.384828    4.497761   -0.547943
  155          1             0       60.377206    2.687815   -0.333192
  156          1             0       60.377472   -2.599686    0.294122
  157          1             0       58.385408   -4.410006    0.508120
  158          1             0       55.848614   -4.302670    0.494046
  159         26             0       69.472213    0.010368   -0.017052
  160          6             0       66.989446   -3.371124    0.367498
  161          6             0       65.992359   -2.460708    0.267920
  162          6             0       66.626440   -1.186667    0.120130
  163          6             0       65.943759    0.025746   -0.020557
  164          6             0       66.637172    1.232021   -0.161251
  165          6             0       66.014480    2.511250   -0.312540
  166          6             0       67.019649    3.412748   -0.412067
  167          6             0       68.247937    2.677754   -0.320643
  168          7             0       67.992548    1.339917   -0.168640
  169          6             0       69.486523    3.285255   -0.378741
  170          6             0       70.719414    2.668416   -0.299901
  171          6             0       71.954044    3.395220   -0.368163
  172          6             0       72.951356    2.485609   -0.264124
  173          6             0       72.317748    1.209431   -0.133319
  174          7             0       70.963178    1.327686   -0.154276
  175          6             0       73.000823   -0.004502   -0.008970
  176          6             0       72.307200   -1.212695    0.111622
  177          6             0       72.929435   -2.494301    0.243812
  178          6             0       71.924019   -3.395666    0.341599
  179          6             0       70.695852   -2.658414    0.268341
  180          7             0       70.951558   -1.319606    0.125796
  181          6             0       69.457425   -3.264881    0.341035
  182          6             0       68.224277   -2.646680    0.279991
  183          7             0       67.980807   -1.306416    0.129716
  184          1             0       66.915272   -4.434572    0.488679
  185          1             0       64.930983   -2.614241    0.289482
  186          1             0       64.954520    2.673969   -0.336462
  187          1             0       66.955013    4.476567   -0.535444
  188          1             0       69.491601    4.359560   -0.498156
  189          1             0       72.027747    4.459593   -0.481225
  190          1             0       74.012641    2.640829   -0.273865
  191          1             0       73.989356   -2.658341    0.258577
  192          1             0       71.988165   -4.460775    0.453517
  193          1             0       69.452856   -4.339391    0.458618
 --------------------------------------------------------------------
     1 basis functions        1 primitive gaussians
     1 alpha electrons        1 beta electrons

 Harmonic frequencies (cm**-1), IR intensities (km*mol⁻¹),
 Raman scattering activities (A**4/amu), Raman depolarization ratios,
 reduced masses (AMU), force constants (mDyne/A) and normal coordinates:
                      1                      2                      3
                        a                      a                      a 
 Frequencies --    -1.3793                -0.1425                 0.8750
 Red. masses --    17.4937                17.5268                17.2345
 Frc consts  --     0.0000                 0.0000                 0.0000
 IR Inten    --     6.2374                20.7011               142.4599
 Raman Activ --     0.0000                 0.0000                 0.0000
 Depolar     --     0.0000                 0.0000                 0.0000
 Atom AN      X      Y      Z        X      Y      Z        X      Y      Z
   1  26     0.00   0.01   0.20    -0.00   0.19   0.02     0.00  -0.05   0.09
   2   6    -0.00   0.00   0.01    -0.04   0.06  -0.01     0.01  -0.01  -0.03
   3   6    -0.00   0.00   0.01    -0.03   0.05  -0.01     0.01  -0.01  -0.03
   4   6    -0.00   0.00   0.04    -0.01   0.06  -0.00     0.00  -0.01  -0.01
   5   6     0.00   0.00   0.05     0.00   0.05  -0.00     0.00  -0.01  -0.01
   6   6     0.00   0.00   0.08     0.01   0.06   0.00    -0.00  -0.01   0.02
   7   6     0.00   0.00   0.09     0.03   0.05   0.01    -0.01  -0.01   0.02
   8   6     0.00   0.00   0.12     0.04   0.06   0.01    -0.01  -0.01   0.04
   9   6     0.00   0.00   0.12     0.03   0.08   0.01    -0.01  -0.02   0.05
  10   7     0.00   0.00   0.10     0.01   0.08   0.01    -0.00  -0.02   0.04
  11   6     0.00   0.00   0.15     0.03   0.09   0.02    -0.01  -0.02   0.08
  12   6     0.00   0.00   0.15     0.03   0.10   0.02    -0.01  -0.03   0.09
  13   6     0.00   0.00   0.18     0.04   0.12   0.03    -0.01  -0.03   0.12
  14   6     0.00   0.00   0.18     0.03   0.13   0.03    -0.01  -0.03   0.12
  15   6     0.00   0.00   0.15     0.01   0.12   0.02    -0.00  -0.03   0.10
  16   7     0.00   0.00   0.15     0.01   0.11   0.02    -0.00  -0.03   0.09
  17   6    -0.00   0.00   0.14    -0.00   0.13   0.02    -0.00  -0.03   0.10
  18   6    -0.00   0.00   0.11    -0.01   0.12   0.01     0.00  -0.03   0.07
  19   6    -0.00   0.00   0.10    -0.03   0.13   0.01     0.01  -0.03   0.07
  20   6    -0.00   0.00   0.07    -0.04   0.11   0.00     0.01  -0.03   0.04
  21   6    -0.00   0.00   0.07    -0.03   0.10   0.00     0.01  -0.03   0.03
  22   7    -0.00   0.00   0.10    -0.02   0.11   0.01     0.00  -0.03   0.05
  23   6    -0.00   0.00   0.04    -0.04   0.09  -0.00     0.01  -0.02   0.01
  24   6    -0.00   0.00   0.04    -0.03   0.08  -0.01     0.01  -0.02  -0.00
  25   7    -0.00   0.00   0.06    -0.02   0.08  -0.00     0.00  -0.02   0.01
  26   1    -0.00   0.00  -0.00    -0.01   0.02  -0.00     0.00  -0.00  -0.01
  27   1    -0.00   0.00  -0.00    -0.01   0.01  -0.00     0.00  -0.00  -0.01
  28   1     0.00   0.00   0.02     0.01   0.01   0.00    -0.00  -0.00   0.00
  29   1     0.00   0.00   0.04     0.01   0.02   0.00    -0.00  -0.00   0.02
  30   1     0.00   0.00   0.05     0.01   0.03   0.01    -0.00  -0.01   0.03
  31   1     0.00   0.00   0.06     0.01   0.03   0.01    -0.00  -0.01   0.04
  32   1     0.00   0.00   0.06     0.01   0.04   0.01    -0.00  -0.01   0.04
  33   1    -0.00   0.00   0.04    -0.00   0.04   0.01    -0.00  -0.01   0.03
  34   1    -0.00   0.00   0.03    -0.01   0.04   0.00     0.00  -0.01   0.02
  35   1    -0.00   0.00   0.02    -0.01   0.03  -0.00     0.00  -0.01   0.01
  36   1    -0.00   0.00   0.01    -0.01   0.03  -0.00     0.00  -0.01  -0.00
  37  26    -0.00   0.00   0.19    -0.00   0.19  -0.03    -0.00  -0.03  -0.13
  38   6    -0.01   0.01   0.03    -0.03   0.06  -0.00     0.01  -0.01  -0.01
  39   6    -0.00   0.01   0.02    -0.02   0.05  -0.00     0.01  -0.01   0.00
  40   6    -0.00   0.00   0.04    -0.01   0.06  -0.00     0.01  -0.01  -0.01
  41   6    -0.00   0.00   0.05     0.00   0.05  -0.00     0.00  -0.01   0.00
  42   6     0.00   0.00   0.07     0.01   0.06  -0.00    -0.00  -0.01  -0.01
  43   6     0.00  -0.00   0.07     0.02   0.05  -0.00    -0.01  -0.01   0.00
  44   6     0.01  -0.00   0.09     0.03   0.06  -0.00    -0.01  -0.01  -0.01
  45   6     0.00  -0.00   0.10     0.03   0.08  -0.01    -0.01  -0.02  -0.04
  46   7     0.00  -0.00   0.09     0.01   0.08  -0.01    -0.01  -0.02  -0.04
  47   6     0.01  -0.00   0.12     0.03   0.09  -0.02    -0.01  -0.02  -0.06
  48   6     0.00  -0.00   0.13     0.02   0.10  -0.02    -0.01  -0.02  -0.08
  49   6     0.01  -0.00   0.15     0.03   0.11  -0.03    -0.01  -0.02  -0.11
  50   6     0.00  -0.00   0.15     0.02   0.13  -0.03    -0.01  -0.02  -0.13
  51   6     0.00  -0.00   0.13     0.01   0.12  -0.03    -0.01  -0.02  -0.12
  52   7     0.00  -0.00   0.13     0.01   0.11  -0.02    -0.01  -0.02  -0.10
  53   6     0.00  -0.00   0.13    -0.00   0.13  -0.03    -0.00  -0.02  -0.13
  54   6    -0.00   0.00   0.11    -0.01   0.12  -0.03     0.00  -0.02  -0.12
  55   6    -0.00   0.00   0.11    -0.02   0.12  -0.03     0.01  -0.02  -0.13
  56   6    -0.01   0.01   0.08    -0.03   0.11  -0.03     0.01  -0.02  -0.11
  57   6    -0.00   0.01   0.08    -0.03   0.10  -0.02     0.01  -0.02  -0.08
  58   7    -0.00   0.00   0.10    -0.01   0.11  -0.02     0.01  -0.02  -0.10
  59   6    -0.01   0.01   0.05    -0.03   0.09  -0.01     0.01  -0.02  -0.06
  60   6    -0.00   0.01   0.05    -0.03   0.08  -0.01     0.01  -0.02  -0.04
  61   7    -0.00   0.00   0.06    -0.01   0.08  -0.01     0.01  -0.02  -0.04
  62   1    -0.00   0.00   0.00    -0.01   0.02  -0.00     0.01  -0.00  -0.00
  63   1    -0.00   0.00   0.00    -0.01   0.01   0.00     0.00  -0.00   0.01
  64   1     0.00  -0.00   0.02     0.01   0.01   0.00    -0.00  -0.00   0.01
  65   1     0.00  -0.00   0.03     0.01   0.02  -0.00    -0.01  -0.00  -0.00
  66   1     0.00  -0.00   0.04     0.01   0.03  -0.00    -0.01  -0.00  -0.02
  67   1     0.00  -0.00   0.05     0.01   0.03  -0.01    -0.01  -0.01  -0.03
  68   1     0.00  -0.00   0.05     0.01   0.04  -0.01    -0.00  -0.01  -0.04
  69   1     0.00  -0.00   0.04    -0.00   0.04  -0.01    -0.00  -0.01  -0.04
  70   1    -0.00   0.00   0.03    -0.01   0.04  -0.01     0.00  -0.01  -0.04
  71   1    -0.00   0.00   0.02    -0.01   0.03  -0.01     0.01  -0.01  -0.03
  72   1    -0.00   0.00   0.01    -0.01   0.03  -0.00     0.01  -0.00  -0.02
  73   6     0.00   0.00   0.03     0.00   0.04  -0.01     0.00  -0.01  -0.02
  74   6     0.00   0.00   0.02     0.00   0.02  -0.01     0.00  -0.00  -0.04
  75   6     0.00  -0.00   0.01     0.00   0.01  -0.01     0.00  -0.00  -0.05
  76   6     0.00  -0.00  -0.01     0.00   0.00  -0.01    -0.00   0.00  -0.06
  77   6    -0.00  -0.00  -0.08     0.00  -0.07  -0.01    -0.00   0.02  -0.08
  78   6    -0.00  -0.00  -0.08     0.00  -0.08  -0.01    -0.00   0.03  -0.08
  79   6    -0.00  -0.00  -0.08     0.00  -0.08  -0.01    -0.00   0.03  -0.06
  80   6    -0.00  -0.00  -0.09     0.00  -0.09  -0.01    -0.00   0.03  -0.05
  81   6    -0.00  -0.00  -0.08     0.00  -0.09   0.02     0.00   0.01   0.06
  82   6    -0.00  -0.00  -0.07     0.00  -0.09   0.02     0.00   0.01   0.07
  83   6    -0.00  -0.00  -0.07     0.00  -0.08   0.02     0.00   0.01   0.09
  84   6    -0.00  -0.00  -0.06     0.00  -0.07   0.02     0.00   0.01   0.09
  85   6    -0.00   0.00   0.00     0.00   0.00   0.01     0.00  -0.00   0.07
  86   6    -0.00   0.00   0.01     0.00   0.01   0.01     0.00  -0.01   0.06
  87   6    -0.00   0.00   0.02     0.00   0.03   0.01     0.00  -0.01   0.04
  88   6    -0.00   0.00   0.04     0.00   0.04   0.00     0.00  -0.01   0.02
  89  26     0.00  -0.00  -0.10     0.00  -0.08  -0.04    -0.00   0.03  -0.20
  90   6     0.00  -0.00  -0.04    -0.03  -0.02  -0.02     0.01   0.01  -0.09
  91   6     0.00  -0.00  -0.03    -0.02  -0.01  -0.02     0.01   0.00  -0.08
  92   6     0.00  -0.00  -0.03    -0.01  -0.01  -0.02     0.00   0.01  -0.08
  93   6     0.00  -0.00  -0.02     0.00  -0.01  -0.02    -0.00   0.00  -0.08
  94   6    -0.00  -0.00  -0.02     0.01  -0.01  -0.02    -0.00   0.01  -0.08
  95   6    -0.00  -0.00  -0.02     0.02  -0.01  -0.02    -0.01   0.00  -0.08
  96   6    -0.00  -0.00  -0.02     0.03  -0.02  -0.02    -0.01   0.01  -0.09
  97   6    -0.00  -0.00  -0.04     0.02  -0.03  -0.02    -0.01   0.01  -0.10
  98   7    -0.00  -0.00  -0.04     0.01  -0.03  -0.02    -0.00   0.01  -0.10
  99   6    -0.00  -0.00  -0.05     0.03  -0.04  -0.02    -0.01   0.01  -0.10
 100   6    -0.00  -0.00  -0.05     0.02  -0.05  -0.02    -0.01   0.01  -0.10
 101   6    -0.00  -0.00  -0.06     0.03  -0.06  -0.02    -0.01   0.02  -0.10
 102   6    -0.00  -0.00  -0.07     0.02  -0.06  -0.02    -0.01   0.02  -0.10
 103   6    -0.00  -0.00  -0.06     0.01  -0.06  -0.02    -0.00   0.02  -0.09
 104   7    -0.00  -0.00  -0.06     0.01  -0.05  -0.02    -0.00   0.02  -0.10
 105   6    -0.00  -0.00  -0.07     0.00  -0.06  -0.02    -0.00   0.02  -0.09
 106   6     0.00  -0.00  -0.07    -0.01  -0.06  -0.02     0.00   0.02  -0.09
 107   6     0.00  -0.00  -0.07    -0.02  -0.06  -0.02     0.01   0.02  -0.09
 108   6     0.00  -0.00  -0.07    -0.03  -0.06  -0.02     0.01   0.02  -0.10
 109   6     0.00  -0.00  -0.06    -0.02  -0.05  -0.02     0.01   0.01  -0.10
 110   7     0.00  -0.00  -0.06    -0.01  -0.05  -0.02     0.00   0.02  -0.10
 111   6     0.00  -0.00  -0.05    -0.02  -0.04  -0.02     0.01   0.01  -0.10
 112   6     0.00  -0.00  -0.04    -0.02  -0.03  -0.02     0.01   0.01  -0.09
 113   7     0.00  -0.00  -0.04    -0.01  -0.03  -0.02     0.00   0.01  -0.10
 114   1     0.00  -0.00  -0.01    -0.01  -0.01  -0.01     0.00   0.00  -0.03
 115   1     0.00  -0.00  -0.01    -0.01  -0.00  -0.01     0.00   0.00  -0.02
 116   1    -0.00  -0.00  -0.00     0.01  -0.00  -0.00    -0.00   0.00  -0.02
 117   1    -0.00  -0.00  -0.01     0.01  -0.01  -0.00    -0.00   0.00  -0.03
 118   1    -0.00  -0.00  -0.01     0.01  -0.01  -0.01    -0.00   0.00  -0.03
 119   1    -0.00  -0.00  -0.02     0.01  -0.02  -0.01    -0.00   0.00  -0.03
 120   1    -0.00  -0.00  -0.02     0.01  -0.02  -0.00    -0.00   0.01  -0.03
 121   1     0.00  -0.00  -0.02    -0.01  -0.02  -0.01     0.00   0.01  -0.03
 122   1     0.00  -0.00  -0.02    -0.01  -0.02  -0.01     0.00   0.00  -0.03
 123   1     0.00  -0.00  -0.02    -0.01  -0.01  -0.01     0.00   0.00  -0.03
 124  26    -0.00  -0.00  -0.19     0.00  -0.19   0.01    -0.00   0.04   0.01
 125   6    -0.00  -0.00  -0.08    -0.00  -0.09   0.00    -0.01   0.03  -0.01
 126   6    -0.00  -0.00  -0.08    -0.00  -0.09  -0.00    -0.01   0.03  -0.02
 127   6    -0.00  -0.00  -0.08    -0.00  -0.09  -0.00    -0.00   0.02  -0.02
 128   6    -0.00  -0.00  -0.09     0.00  -0.09  -0.00    -0.00   0.03  -0.04
 129   6     0.00  -0.00  -0.09     0.00  -0.09  -0.01     0.00   0.02  -0.04
 130   6     0.00  -0.00  -0.10     0.00  -0.09  -0.01     0.01   0.02  -0.05
 131   6     0.00  -0.00  -0.10     0.00  -0.09  -0.01     0.01   0.02  -0.04
 132   6     0.00  -0.00  -0.10     0.00  -0.09  -0.00     0.01   0.02  -0.03
 133   7     0.00  -0.00  -0.10     0.00  -0.10  -0.00     0.00   0.02  -0.02
 134   6     0.00  -0.00  -0.10     0.00  -0.09  -0.00     0.01   0.02  -0.01
 135   6     0.00  -0.00  -0.09     0.00  -0.09   0.00     0.01   0.02   0.01
 136   6     0.00  -0.00  -0.09     0.00  -0.09   0.00     0.01   0.01   0.02
 137   6     0.00  -0.00  -0.09     0.00  -0.09   0.01     0.01   0.01   0.03
 138   6     0.00  -0.00  -0.09     0.00  -0.09   0.01     0.00   0.01   0.03
 139   7     0.00  -0.00  -0.10     0.00  -0.10   0.01     0.00   0.02   0.02
 140   6    -0.00  -0.00  -0.08     0.00  -0.09   0.01    -0.00   0.01   0.05
 141   6    -0.00  -0.00  -0.08    -0.00  -0.09   0.01    -0.00   0.01   0.05
 142   6    -0.00  -0.00  -0.07    -0.00  -0.09   0.02    -0.01   0.01   0.06
 143   6    -0.00  -0.00  -0.07    -0.00  -0.09   0.02    -0.01   0.02   0.05
 144   6    -0.00  -0.00  -0.08    -0.00  -0.09   0.01    -0.01   0.02   0.04
 145   7    -0.00  -0.00  -0.09    -0.00  -0.10   0.01    -0.00   0.02   0.03
 146   6    -0.00  -0.00  -0.08    -0.00  -0.09   0.01    -0.01   0.02   0.02
 147   6    -0.00  -0.00  -0.08    -0.00  -0.09   0.01    -0.01   0.02   0.00
 148   7    -0.00  -0.00  -0.09    -0.00  -0.10   0.00    -0.00   0.02  -0.01
 149   1    -0.00  -0.00  -0.02    -0.00  -0.03   0.00    -0.00   0.01  -0.00
 150   1    -0.00  -0.00  -0.02    -0.00  -0.03  -0.00    -0.00   0.01  -0.01
 151   1     0.00  -0.00  -0.03     0.00  -0.03  -0.00     0.00   0.01  -0.02
 152   1     0.00  -0.00  -0.03     0.00  -0.03  -0.00     0.00   0.01  -0.01
 153   1     0.00  -0.00  -0.03     0.00  -0.03  -0.00     0.00   0.00  -0.01
 154   1     0.00  -0.00  -0.03     0.00  -0.03   0.00     0.00   0.00   0.00
 155   1     0.00  -0.00  -0.03     0.00  -0.03   0.00     0.00   0.00   0.01
 156   1    -0.00  -0.00  -0.02    -0.00  -0.03   0.01    -0.00   0.00   0.02
 157   1    -0.00  -0.00  -0.02    -0.00  -0.03   0.01    -0.00   0.01   0.02
 158   1    -0.00  -0.00  -0.02    -0.00  -0.03   0.00    -0.00   0.01   0.01
 159  26    -0.00   0.00  -0.07     0.00  -0.08   0.05     0.00   0.01   0.22
 160   6    -0.00   0.00  -0.04     0.03  -0.05   0.03    -0.00   0.01   0.12
 161   6    -0.00   0.00  -0.05     0.02  -0.06   0.03    -0.00   0.01   0.11
 162   6    -0.00   0.00  -0.05     0.01  -0.06   0.03    -0.00   0.01   0.11
 163   6    -0.00  -0.00  -0.05     0.00  -0.06   0.02     0.00   0.01   0.10
 164   6     0.00  -0.00  -0.06    -0.01  -0.06   0.02     0.00   0.01   0.10
 165   6     0.00  -0.00  -0.07    -0.02  -0.06   0.02     0.00   0.01   0.10
 166   6     0.00  -0.00  -0.07    -0.03  -0.06   0.02     0.00   0.01   0.10
 167   6     0.00  -0.00  -0.05    -0.02  -0.05   0.02     0.00   0.00   0.10
 168   7     0.00  -0.00  -0.05    -0.01  -0.05   0.02     0.00   0.00   0.11
 169   6     0.00  -0.00  -0.05    -0.03  -0.04   0.02     0.00   0.00   0.10
 170   6     0.00  -0.00  -0.04    -0.02  -0.03   0.02     0.00   0.00   0.10
 171   6     0.00  -0.00  -0.03    -0.03  -0.02   0.01     0.00  -0.00   0.09
 172   6     0.00  -0.00  -0.02    -0.02  -0.01   0.01     0.00  -0.00   0.08
 173   6     0.00   0.00  -0.02    -0.01  -0.01   0.02     0.00  -0.00   0.09
 174   7     0.00  -0.00  -0.03    -0.01  -0.03   0.02     0.00   0.00   0.10
 175   6    -0.00   0.00  -0.01     0.00  -0.01   0.02     0.00  -0.00   0.08
 176   6    -0.00   0.00  -0.01     0.01  -0.01   0.02    -0.00  -0.00   0.09
 177   6    -0.00   0.00   0.00     0.02  -0.01   0.02    -0.00  -0.00   0.10
 178   6    -0.00   0.00  -0.00     0.03  -0.02   0.03    -0.00   0.00   0.11
 179   6    -0.00   0.00  -0.02     0.02  -0.03   0.03    -0.00   0.00   0.11
 180   7    -0.00   0.00  -0.02     0.01  -0.03   0.03    -0.00   0.00   0.11
 181   6    -0.00   0.00  -0.02     0.03  -0.03   0.03    -0.00   0.01   0.12
 182   6    -0.00   0.00  -0.03     0.02  -0.04   0.03    -0.00   0.01   0.12
 183   7    -0.00   0.00  -0.04     0.01  -0.05   0.03    -0.00   0.01   0.12
 184   1    -0.00   0.00  -0.01     0.01  -0.02   0.01    -0.00   0.00   0.04
 185   1    -0.00   0.00  -0.01     0.01  -0.02   0.01    -0.00   0.00   0.03
 186   1     0.00  -0.00  -0.02    -0.01  -0.02   0.01     0.00   0.00   0.03
 187   1     0.00  -0.00  -0.02    -0.01  -0.02   0.00     0.00   0.00   0.03
 188   1     0.00  -0.00  -0.02    -0.01  -0.01   0.00     0.00   0.00   0.03
 189   1     0.00  -0.00  -0.01    -0.01  -0.00   0.00     0.00  -0.00   0.03
 190   1     0.00  -0.00  -0.00    -0.01  -0.00   0.00     0.00  -0.00   0.02
 191   1    -0.00   0.00   0.00     0.01   0.00   0.01    -0.00  -0.00   0.03
 192   1    -0.00   0.00   0.00     0.01  -0.00   0.01    -0.00   0.00   0.03
 193   1    -0.00   0.00  -0.01     0.01  -0.01   0.01    -0.00   0.00   0.04
                      4                      5                      6
                        a                      a                      a 
 Frequencies --     2.4908                 2.8934                 3.5784
 Red. masses --    11.7057                16.1274                16.0238
 Frc consts  --     0.0000                 0.0000                 0.0000
 IR Inten    --    81.4672               115.9762                83.2491
 Raman Activ --     0.0000                 0.0000                 0.0000
 Depolar     --     0.0000                 0.0000                 0.0000
 Atom AN      X      Y      Z        X      Y      Z        X      Y      Z
   1  26     0.00   0.01   0.04    -0.00   0.10   0.00     0.00  -0.01   0.03
   2   6    -0.00   0.00   0.14    -0.06   0.00  -0.03     0.00  -0.00  -0.08
   3   6    -0.00   0.00   0.11    -0.04  -0.01  -0.03     0.00  -0.00  -0.08
   4   6    -0.00   0.00   0.06    -0.02  -0.00  -0.01     0.00  -0.00  -0.05
   5   6     0.00   0.00   0.02    -0.00  -0.01  -0.01     0.00  -0.00  -0.03
   6   6     0.00   0.00  -0.02     0.02  -0.00   0.01    -0.00  -0.00  -0.01
   7   6     0.00   0.00  -0.07     0.04  -0.01   0.01    -0.00  -0.00   0.00
   8   6     0.00   0.00  -0.10     0.06   0.00   0.02    -0.00  -0.00   0.03
   9   6     0.00   0.00  -0.08     0.05   0.03   0.02    -0.00  -0.00   0.04
  10   7     0.00   0.00  -0.03     0.02   0.02   0.01    -0.00  -0.00   0.01
  11   6     0.00   0.00  -0.10     0.06   0.05   0.03    -0.00  -0.00   0.07
  12   6     0.00   0.00  -0.08     0.04   0.07   0.02    -0.00  -0.01   0.08
  13   6     0.00   0.01  -0.11     0.06   0.09   0.03    -0.00  -0.01   0.11
  14   6     0.00   0.01  -0.08     0.04   0.11   0.03    -0.00  -0.01   0.11
  15   6     0.00   0.01  -0.03     0.02   0.10   0.02    -0.00  -0.01   0.08
  16   7     0.00   0.00  -0.03     0.02   0.08   0.02    -0.00  -0.01   0.06
  17   6     0.00   0.01   0.01    -0.00   0.11   0.01    -0.00  -0.01   0.07
  18   6    -0.00   0.01   0.06    -0.02   0.10  -0.00     0.00  -0.01   0.03
  19   6    -0.00   0.01   0.10    -0.04   0.11  -0.01     0.00  -0.01   0.02
  20   6    -0.00   0.01   0.14    -0.06   0.09  -0.02     0.00  -0.01  -0.01
  21   6    -0.00   0.01   0.11    -0.05   0.07  -0.02     0.00  -0.01  -0.02
  22   7    -0.00   0.01   0.07    -0.03   0.08  -0.01     0.00  -0.01   0.01
  23   6    -0.00   0.00   0.14    -0.06   0.05  -0.03     0.00  -0.00  -0.04
  24   6    -0.00   0.00   0.11    -0.05   0.02  -0.02     0.00  -0.00  -0.05
  25   7    -0.00   0.00   0.07    -0.03   0.02  -0.01     0.00  -0.00  -0.03
  26   1    -0.00   0.00   0.05    -0.02   0.00  -0.01     0.00  -0.00  -0.03
  27   1    -0.00   0.00   0.03    -0.01  -0.01  -0.01     0.00  -0.00  -0.03
  28   1     0.00  -0.00  -0.02     0.01  -0.01   0.00    -0.00  -0.00  -0.00
  29   1     0.00   0.00  -0.04     0.02   0.00   0.01    -0.00  -0.00   0.01
  30   1     0.00   0.00  -0.04     0.02   0.01   0.01    -0.00  -0.00   0.02
  31   1     0.00   0.00  -0.04     0.02   0.03   0.01    -0.00  -0.00   0.04
  32   1     0.00   0.00  -0.02     0.01   0.04   0.01    -0.00  -0.00   0.04
  33   1     0.00   0.00   0.00    -0.00   0.04   0.00    -0.00  -0.00   0.02
  34   1    -0.00   0.00   0.03    -0.01   0.04  -0.00     0.00  -0.00   0.01
  35   1    -0.00   0.00   0.05    -0.02   0.03  -0.01     0.00  -0.00  -0.01
  36   1    -0.00   0.00   0.05    -0.02   0.01  -0.01     0.00  -0.00  -0.02
  37  26    -0.00  -0.00   0.02     0.00  -0.11  -0.01    -0.00   0.01   0.04
  38   6     0.01  -0.04   0.22     0.06  -0.01  -0.00    -0.02  -0.01   0.05
  39   6     0.00  -0.02   0.17     0.04   0.01  -0.01    -0.01  -0.01   0.01
  40   6     0.00  -0.01   0.09     0.02   0.00  -0.00    -0.01  -0.01  -0.00
  41   6    -0.00   0.00   0.02     0.00   0.01  -0.00    -0.00  -0.00  -0.04
  42   6    -0.00   0.01  -0.05    -0.02   0.00  -0.01     0.01   0.00  -0.05
  43   6    -0.00   0.03  -0.12    -0.04   0.01  -0.01     0.01   0.01  -0.09
  44   6    -0.01   0.03  -0.18    -0.06  -0.01  -0.01     0.02   0.01  -0.10
  45   6    -0.00   0.03  -0.14    -0.05  -0.03  -0.01     0.01   0.01  -0.06
  46   7    -0.00   0.01  -0.07    -0.02  -0.03  -0.01     0.01   0.01  -0.04
  47   6    -0.01   0.03  -0.18    -0.06  -0.05  -0.00     0.02   0.02  -0.06
  48   6    -0.00   0.03  -0.15    -0.05  -0.07  -0.00     0.01   0.02  -0.02
  49   6    -0.01   0.03  -0.20    -0.06  -0.09  -0.00     0.02   0.03  -0.02
  50   6    -0.00   0.02  -0.15    -0.04  -0.11  -0.00     0.01   0.03   0.02
  51   6    -0.00   0.01  -0.07    -0.02  -0.10  -0.00     0.01   0.02   0.04
  52   7    -0.00   0.01  -0.08    -0.02  -0.08  -0.00     0.01   0.02   0.01
  53   6    -0.00  -0.00  -0.01     0.00  -0.11   0.00    -0.00   0.02   0.08
  54   6     0.00  -0.02   0.07     0.02  -0.10  -0.00    -0.01   0.01   0.09
  55   6     0.00  -0.03   0.14     0.04  -0.11   0.00    -0.01   0.01   0.13
  56   6     0.01  -0.04   0.20     0.06  -0.09  -0.00    -0.02  -0.00   0.13
  57   6     0.00  -0.03   0.17     0.05  -0.07  -0.00    -0.02  -0.00   0.09
  58   7     0.00  -0.02   0.09     0.03  -0.08  -0.00    -0.01   0.01   0.08
  59   6     0.01  -0.04   0.21     0.06  -0.05  -0.00    -0.02  -0.01   0.09
  60   6     0.00  -0.03   0.17     0.05  -0.03  -0.00    -0.01  -0.01   0.05
  61   7     0.00  -0.02   0.10     0.03  -0.03  -0.00    -0.01  -0.00   0.02
  62   1     0.00  -0.01   0.08     0.02  -0.00  -0.00    -0.01  -0.00   0.02
  63   1     0.00  -0.01   0.05     0.01   0.01  -0.00    -0.00  -0.00  -0.00
  64   1    -0.00   0.01  -0.04    -0.01   0.01  -0.00     0.00   0.00  -0.03
  65   1    -0.00   0.01  -0.07    -0.02  -0.00  -0.00     0.01   0.00  -0.04
  66   1    -0.00   0.01  -0.07    -0.02  -0.01  -0.00     0.01   0.01  -0.02
  67   1    -0.00   0.01  -0.08    -0.02  -0.03  -0.00     0.01   0.01  -0.01
  68   1    -0.00   0.01  -0.05    -0.01  -0.04  -0.00     0.00   0.01   0.01
  69   1    -0.00  -0.00  -0.00     0.00  -0.04   0.00     0.00   0.01   0.03
  70   1     0.00  -0.01   0.04     0.01  -0.04   0.00    -0.00   0.00   0.04
  71   1     0.00  -0.02   0.08     0.02  -0.03  -0.00    -0.01  -0.00   0.05
  72   1     0.00  -0.01   0.08     0.02  -0.01  -0.00    -0.01  -0.00   0.03
  73   6     0.00  -0.00   0.02    -0.00  -0.04  -0.01     0.00  -0.00  -0.05
  74   6     0.00  -0.00   0.02    -0.00  -0.05  -0.01     0.00   0.00  -0.06
  75   6     0.00  -0.00   0.02    -0.00  -0.07  -0.01     0.00   0.00  -0.07
  76   6     0.00  -0.00   0.01     0.00  -0.08  -0.01     0.00   0.00  -0.08
  77   6     0.00  -0.01  -0.02     0.00  -0.10   0.01     0.00   0.01   0.01
  78   6     0.00  -0.01  -0.03     0.00  -0.09   0.01     0.00   0.01   0.03
  79   6     0.00  -0.01  -0.03     0.00  -0.08   0.01     0.00   0.02   0.05
  80   6     0.00  -0.01  -0.03     0.00  -0.07   0.02     0.00   0.02   0.07
  81   6    -0.00   0.00  -0.03     0.00   0.07   0.00     0.00  -0.00   0.07
  82   6    -0.00   0.00  -0.02     0.00   0.08   0.00     0.00  -0.00   0.05
  83   6    -0.00   0.00  -0.02     0.00   0.09  -0.00     0.00  -0.01   0.03
  84   6    -0.00   0.00  -0.01     0.00   0.10  -0.00     0.00  -0.01   0.00
  85   6    -0.00   0.01   0.02     0.00   0.08  -0.00    -0.00  -0.02  -0.08
  86   6    -0.00   0.01   0.02     0.00   0.07  -0.00    -0.00  -0.01  -0.08
  87   6    -0.00   0.00   0.02     0.00   0.05  -0.00    -0.00  -0.01  -0.07
  88   6    -0.00   0.00   0.02     0.00   0.04  -0.00    -0.00  -0.01  -0.05
  89  26     0.00  -0.01  -0.00    -0.00  -0.19  -0.02     0.00   0.01  -0.13
  90   6     0.00   0.01   0.11    -0.01  -0.09  -0.02     0.00   0.00  -0.05
  91   6     0.00   0.00   0.08    -0.01  -0.08  -0.02     0.00   0.00  -0.06
  92   6     0.00   0.00   0.04    -0.00  -0.08  -0.01     0.00   0.00  -0.07
  93   6     0.00  -0.00   0.01     0.00  -0.08  -0.01     0.00   0.00  -0.08
  94   6    -0.00  -0.01  -0.03     0.00  -0.08  -0.01    -0.00   0.00  -0.09
  95   6    -0.00  -0.01  -0.06     0.01  -0.08  -0.01    -0.00  -0.00  -0.11
  96   6    -0.00  -0.01  -0.09     0.01  -0.08  -0.01    -0.00  -0.00  -0.12
  97   6    -0.00  -0.01  -0.07     0.01  -0.09  -0.01    -0.00  -0.00  -0.11
  98   7    -0.00  -0.01  -0.04     0.00  -0.09  -0.01    -0.00   0.00  -0.09
  99   6    -0.00  -0.01  -0.09     0.01  -0.09  -0.01    -0.00  -0.00  -0.11
 100   6    -0.00  -0.01  -0.08     0.01  -0.09  -0.01    -0.00   0.00  -0.09
 101   6    -0.00  -0.02  -0.11     0.01  -0.09  -0.00    -0.00   0.00  -0.08
 102   6    -0.00  -0.01  -0.08     0.00  -0.10  -0.00    -0.00   0.01  -0.05
 103   6     0.00  -0.01  -0.05     0.00  -0.09  -0.00    -0.00   0.01  -0.04
 104   7     0.00  -0.01  -0.05     0.00  -0.10  -0.01    -0.00   0.00  -0.07
 105   6     0.00  -0.01  -0.02     0.00  -0.10   0.00     0.00   0.01  -0.02
 106   6     0.00  -0.00   0.02    -0.00  -0.09  -0.00     0.00   0.01  -0.01
 107   6     0.00   0.00   0.06    -0.00  -0.10  -0.00     0.00   0.01   0.00
 108   6     0.00   0.01   0.09    -0.01  -0.09  -0.01     0.00   0.01  -0.01
 109   6     0.00   0.00   0.07    -0.01  -0.09  -0.01     0.00   0.01  -0.03
 110   7     0.00  -0.00   0.03    -0.00  -0.10  -0.01     0.00   0.01  -0.04
 111   6     0.00   0.01   0.09    -0.01  -0.09  -0.01     0.00   0.01  -0.04
 112   6     0.00   0.00   0.08    -0.01  -0.09  -0.01     0.00   0.00  -0.05
 113   7     0.00   0.00   0.05    -0.00  -0.09  -0.01     0.00   0.00  -0.07
 114   1     0.00   0.00   0.04    -0.00  -0.02  -0.01     0.00   0.00  -0.01
 115   1     0.00   0.00   0.03    -0.00  -0.02  -0.01     0.00   0.00  -0.02
 116   1    -0.00  -0.00  -0.02     0.00  -0.02  -0.00    -0.00  -0.00  -0.03
 117   1    -0.00  -0.01  -0.03     0.00  -0.02  -0.00    -0.00  -0.00  -0.04
 118   1    -0.00  -0.01  -0.04     0.00  -0.03  -0.00    -0.00  -0.00  -0.04
 119   1    -0.00  -0.01  -0.04     0.00  -0.03  -0.00    -0.00   0.00  -0.03
 120   1    -0.00  -0.00  -0.03     0.00  -0.03   0.00    -0.00   0.00  -0.01
 121   1     0.00   0.00   0.02    -0.00  -0.03   0.00     0.00   0.00   0.01
 122   1     0.00   0.00   0.03    -0.00  -0.03  -0.00     0.00   0.00   0.00
 123   1     0.00   0.00   0.04    -0.00  -0.03  -0.00     0.00   0.00  -0.01
 124  26    -0.00  -0.01  -0.08     0.00   0.01   0.03     0.00   0.03   0.23
 125   6     0.00  -0.00   0.01     0.05  -0.03   0.04    -0.01   0.03   0.19
 126   6     0.00  -0.00  -0.00     0.04  -0.05   0.03    -0.00   0.02   0.16
 127   6     0.00  -0.00  -0.02     0.02  -0.04   0.02    -0.00   0.02   0.12
 128   6     0.00  -0.01  -0.04     0.00  -0.05   0.02     0.00   0.02   0.09
 129   6    -0.00  -0.01  -0.06    -0.02  -0.04   0.01     0.00   0.01   0.07
 130   6    -0.00  -0.01  -0.08    -0.04  -0.05   0.00     0.00   0.01   0.04
 131   6    -0.00  -0.01  -0.09    -0.05  -0.04  -0.01     0.01   0.01   0.03
 132   6    -0.00  -0.01  -0.08    -0.04  -0.02  -0.00     0.00   0.01   0.05
 133   7    -0.00  -0.01  -0.06    -0.02  -0.02   0.01     0.00   0.01   0.08
 134   6    -0.00  -0.01  -0.09    -0.05   0.00  -0.01     0.01   0.01   0.05
 135   6    -0.00  -0.01  -0.07    -0.04   0.02  -0.01     0.00   0.00   0.05
 136   6    -0.00  -0.01  -0.08    -0.05   0.03  -0.02     0.01  -0.00   0.03
 137   6    -0.00  -0.00  -0.06    -0.04   0.05  -0.01     0.00  -0.00   0.04
 138   6    -0.00  -0.00  -0.05    -0.02   0.04  -0.00     0.00   0.00   0.07
 139   7    -0.00  -0.00  -0.06    -0.02   0.02   0.00     0.00   0.01   0.08
 140   6    -0.00  -0.00  -0.03     0.00   0.05   0.01     0.00   0.00   0.09
 141   6     0.00   0.00  -0.02     0.02   0.04   0.02    -0.00   0.01   0.12
 142   6     0.00   0.00  -0.00     0.04   0.05   0.02    -0.00   0.01   0.16
 143   6     0.00   0.00   0.01     0.05   0.04   0.03    -0.01   0.02   0.19
 144   6     0.00   0.00  -0.00     0.04   0.02   0.03    -0.00   0.02   0.18
 145   7     0.00  -0.00  -0.02     0.02   0.03   0.02    -0.00   0.01   0.15
 146   6     0.00   0.00   0.00     0.05   0.01   0.04    -0.01   0.02   0.20
 147   6     0.00  -0.00  -0.00     0.04  -0.01   0.03    -0.00   0.02   0.18
 148   7     0.00  -0.00  -0.02     0.02  -0.02   0.03    -0.00   0.02   0.15
 149   1     0.00   0.00   0.01     0.02  -0.01   0.01    -0.00   0.01   0.06
 150   1     0.00  -0.00   0.00     0.01  -0.02   0.01    -0.00   0.01   0.04
 151   1    -0.00  -0.00  -0.02    -0.01  -0.02   0.00     0.00   0.00   0.01
 152   1    -0.00  -0.00  -0.03    -0.02  -0.01  -0.00     0.00   0.00   0.00
 153   1    -0.00  -0.00  -0.03    -0.02  -0.00  -0.00     0.00   0.00   0.01
 154   1    -0.00  -0.00  -0.03    -0.02   0.01  -0.01     0.00  -0.00   0.00
 155   1    -0.00  -0.00  -0.02    -0.01   0.02  -0.00     0.00  -0.00   0.01
 156   1     0.00   0.00   0.00     0.01   0.02   0.01    -0.00   0.00   0.04
 157   1     0.00   0.00   0.01     0.02   0.01   0.01    -0.00   0.01   0.06
 158   1     0.00   0.00   0.00     0.02   0.00   0.01    -0.00   0.01   0.07
 159  26    -0.00   0.01   0.03     0.00   0.20  -0.00    -0.00  -0.04  -0.15
 160   6    -0.00  -0.00  -0.05    -0.01   0.10   0.01     0.00  -0.01  -0.03
 161   6    -0.00   0.00  -0.04    -0.00   0.10   0.01     0.00  -0.01  -0.02
 162   6    -0.00   0.00  -0.02    -0.00   0.10   0.00     0.00  -0.01  -0.03
 163   6    -0.00   0.00  -0.00     0.00   0.10  -0.00     0.00  -0.01  -0.02
 164   6     0.00   0.01   0.02     0.00   0.10  -0.00    -0.00  -0.02  -0.04
 165   6     0.00   0.01   0.04     0.01   0.10  -0.01    -0.00  -0.02  -0.05
 166   6     0.00   0.01   0.06     0.01   0.09  -0.01    -0.00  -0.02  -0.07
 167   6     0.00   0.01   0.05     0.01   0.09  -0.01    -0.00  -0.02  -0.08
 168   7     0.00   0.01   0.03     0.00   0.10  -0.00    -0.00  -0.02  -0.07
 169   6     0.00   0.01   0.07     0.01   0.09  -0.01    -0.00  -0.02  -0.10
 170   6    -0.00   0.01   0.07     0.01   0.09  -0.01    -0.00  -0.02  -0.10
 171   6    -0.00   0.01   0.09     0.01   0.08  -0.01    -0.00  -0.02  -0.11
 172   6    -0.00   0.01   0.07     0.01   0.08  -0.01    -0.00  -0.02  -0.11
 173   6    -0.00   0.01   0.04     0.00   0.08  -0.00    -0.00  -0.02  -0.09
 174   7    -0.00   0.01   0.05     0.00   0.09  -0.00    -0.00  -0.02  -0.10
 175   6    -0.00   0.01   0.02     0.00   0.08  -0.00    -0.00  -0.02  -0.09
 176   6    -0.00   0.00  -0.00    -0.00   0.08   0.00     0.00  -0.02  -0.08
 177   6    -0.00   0.00  -0.02    -0.01   0.08   0.00     0.00  -0.02  -0.08
 178   6    -0.00   0.00  -0.04    -0.01   0.09   0.01     0.00  -0.02  -0.08
 179   6    -0.00   0.00  -0.03    -0.01   0.09   0.01     0.00  -0.02  -0.07
 180   7    -0.00   0.00  -0.01    -0.00   0.09   0.00     0.00  -0.02  -0.08
 181   6    -0.00   0.00  -0.04    -0.01   0.09   0.01     0.00  -0.02  -0.06
 182   6    -0.00   0.00  -0.04    -0.01   0.09   0.01     0.00  -0.02  -0.05
 183   7    -0.00   0.00  -0.02    -0.00   0.10   0.00     0.00  -0.02  -0.05
 184   1    -0.00  -0.00  -0.02    -0.00   0.03   0.00     0.00  -0.00  -0.01
 185   1    -0.00  -0.00  -0.01    -0.00   0.03   0.00     0.00  -0.00   0.00
 186   1     0.00   0.00   0.01     0.00   0.03  -0.00    -0.00  -0.00  -0.01
 187   1     0.00   0.00   0.02     0.00   0.03  -0.00    -0.00  -0.01  -0.02
 188   1     0.00   0.00   0.03     0.00   0.03  -0.00    -0.00  -0.01  -0.03
 189   1    -0.00   0.00   0.03     0.00   0.02  -0.00    -0.00  -0.01  -0.04
 190   1    -0.00   0.00   0.02     0.00   0.02  -0.00    -0.00  -0.01  -0.03
 191   1    -0.00   0.00  -0.01    -0.00   0.02   0.00     0.00  -0.01  -0.03
 192   1    -0.00  -0.00  -0.02    -0.00   0.02   0.00     0.00  -0.01  -0.02
 193   1    -0.00  -0.00  -0.02    -0.00   0.03   0.00     0.00  -0.00  -0.02
                      7                      8                      9
                        a                      a                      a 
 Frequencies --     4.0906                 5.3580                 6.1667
 Red. masses --    12.6645                11.2490                11.2261
 Frc consts  --     0.0000                 0.0000                 0.0000
 IR Inten    --   421.3482                 2.3769               161.7286
 Raman Activ --     0.0000                 0.0000                 0.0000
 Depolar     --     0.0000                 0.0000                 0.0000
 Atom AN      X      Y      Z        X      Y      Z        X      Y      Z
   1  26     0.00  -0.01  -0.06    -0.00  -0.00  -0.02     0.00  -0.00   0.01
   2   6     0.01  -0.00  -0.17     0.00   0.00  -0.09     0.01   0.00   0.06
   3   6     0.01   0.00  -0.11     0.00   0.00  -0.07     0.00   0.01   0.04
   4   6     0.00  -0.00  -0.06     0.00   0.00  -0.04     0.00   0.00   0.02
   5   6     0.00   0.00   0.01    -0.00   0.00  -0.01     0.00   0.01   0.00
   6   6    -0.00   0.00   0.06    -0.00   0.00   0.02    -0.00   0.00  -0.02
   7   6    -0.01   0.00   0.12    -0.00   0.00   0.05    -0.00   0.00  -0.04
   8   6    -0.01  -0.00   0.16    -0.00   0.00   0.08    -0.01   0.00  -0.05
   9   6    -0.01  -0.00   0.11    -0.00   0.00   0.06    -0.00   0.00  -0.04
  10   7    -0.00  -0.00   0.05    -0.00   0.00   0.03    -0.00   0.00  -0.02
  11   6    -0.01  -0.01   0.13    -0.00  -0.00   0.08    -0.01  -0.00  -0.05
  12   6    -0.01  -0.01   0.09    -0.00  -0.00   0.06    -0.01  -0.00  -0.04
  13   6    -0.01  -0.01   0.12    -0.00  -0.00   0.09    -0.01  -0.01  -0.06
  14   6    -0.01  -0.01   0.06    -0.00  -0.00   0.06    -0.00  -0.01  -0.05
  15   6    -0.00  -0.01   0.00    -0.00  -0.00   0.03    -0.00  -0.01  -0.02
  16   7    -0.00  -0.01   0.02    -0.00  -0.00   0.03    -0.00  -0.00  -0.02
  17   6     0.00  -0.01  -0.06     0.00  -0.00  -0.01     0.00  -0.01   0.00
  18   6     0.00  -0.01  -0.12     0.00  -0.00  -0.04     0.00  -0.01   0.02
  19   6     0.01  -0.01  -0.19     0.00  -0.00  -0.08     0.00  -0.01   0.05
  20   6     0.01  -0.01  -0.22     0.00  -0.00  -0.10     0.01  -0.01   0.06
  21   6     0.01  -0.01  -0.17     0.00  -0.00  -0.08     0.01  -0.00   0.05
  22   7     0.00  -0.01  -0.12     0.00  -0.00  -0.05     0.00  -0.01   0.03
  23   6     0.01  -0.01  -0.19     0.00  -0.00  -0.10     0.01  -0.00   0.06
  24   6     0.01  -0.00  -0.15     0.00   0.00  -0.08     0.01   0.00   0.05
  25   7     0.00  -0.00  -0.08     0.00   0.00  -0.04     0.00   0.00   0.03
  26   1     0.00  -0.00  -0.06     0.00   0.00  -0.03     0.00   0.00   0.02
  27   1     0.00   0.00  -0.03     0.00   0.00  -0.02     0.00   0.00   0.01
  28   1    -0.00   0.00   0.04    -0.00   0.00   0.02    -0.00   0.00  -0.01
  29   1    -0.00  -0.00   0.06    -0.00   0.00   0.03    -0.00   0.00  -0.02
  30   1    -0.00  -0.00   0.05    -0.00  -0.00   0.03    -0.00  -0.00  -0.02
  31   1    -0.00  -0.00   0.05    -0.00  -0.00   0.03    -0.00  -0.00  -0.02
  32   1    -0.00  -0.00   0.02    -0.00  -0.00   0.02    -0.00  -0.00  -0.01
  33   1     0.00  -0.00  -0.02     0.00  -0.00  -0.00     0.00  -0.00   0.00
  34   1     0.00  -0.00  -0.06     0.00  -0.00  -0.02     0.00  -0.00   0.01
  35   1     0.00  -0.00  -0.08     0.00  -0.00  -0.04     0.00  -0.00   0.02
  36   1     0.00  -0.00  -0.07     0.00  -0.00  -0.04     0.00  -0.00   0.02
  37  26    -0.00   0.00  -0.02     0.00   0.00  -0.01    -0.00   0.00   0.00
  38   6     0.00  -0.01   0.07     0.00   0.02  -0.08     0.00   0.01  -0.05
  39   6     0.00  -0.01   0.06     0.00   0.01  -0.06     0.00   0.01  -0.04
  40   6     0.00  -0.00   0.03     0.00   0.01  -0.03     0.00   0.01  -0.02
  41   6     0.00  -0.00   0.01    -0.00   0.00  -0.00    -0.00   0.01  -0.00
  42   6    -0.00   0.00  -0.01    -0.00  -0.00   0.02    -0.00   0.00   0.02
  43   6    -0.00   0.01  -0.03    -0.00  -0.01   0.05    -0.00  -0.00   0.03
  44   6    -0.00   0.01  -0.05    -0.00  -0.01   0.07    -0.00  -0.00   0.05
  45   6    -0.00   0.01  -0.05    -0.00  -0.01   0.06    -0.00  -0.00   0.04
  46   7    -0.00   0.01  -0.02    -0.00  -0.00   0.03    -0.00  -0.00   0.02
  47   6    -0.00   0.01  -0.07    -0.00  -0.01   0.07    -0.00  -0.01   0.05
  48   6    -0.00   0.01  -0.07    -0.00  -0.01   0.06    -0.00  -0.01   0.05
  49   6    -0.00   0.02  -0.09    -0.00  -0.02   0.08    -0.00  -0.01   0.06
  50   6    -0.00   0.01  -0.09    -0.00  -0.01   0.06    -0.00  -0.01   0.05
  51   6    -0.00   0.01  -0.06    -0.00  -0.01   0.03    -0.00  -0.01   0.03
  52   7    -0.00   0.01  -0.05    -0.00  -0.01   0.03    -0.00  -0.01   0.03
  53   6    -0.00   0.01  -0.04     0.00  -0.00  -0.00    -0.00  -0.01   0.01
  54   6    -0.00   0.00  -0.01     0.00   0.00  -0.03     0.00  -0.00  -0.01
  55   6     0.00  -0.00   0.01     0.00   0.01  -0.07     0.00   0.00  -0.04
  56   6     0.00  -0.01   0.04     0.00   0.01  -0.09     0.00   0.01  -0.05
  57   6     0.00  -0.01   0.03     0.00   0.01  -0.07     0.00   0.01  -0.04
  58   7    -0.00  -0.00   0.00     0.00   0.01  -0.04     0.00   0.00  -0.02
  59   6     0.00  -0.01   0.05     0.00   0.01  -0.08     0.00   0.01  -0.05
  60   6     0.00  -0.01   0.05     0.00   0.01  -0.07     0.00   0.01  -0.04
  61   7     0.00  -0.00   0.03     0.00   0.01  -0.04     0.00   0.01  -0.02
  62   1     0.00  -0.00   0.03     0.00   0.01  -0.03     0.00   0.00  -0.02
  63   1     0.00  -0.00   0.02     0.00   0.00  -0.02     0.00   0.00  -0.01
  64   1    -0.00   0.00  -0.01    -0.00  -0.00   0.02    -0.00   0.00   0.01
  65   1    -0.00   0.00  -0.02    -0.00  -0.00   0.03    -0.00  -0.00   0.02
  66   1    -0.00   0.00  -0.03    -0.00  -0.01   0.03    -0.00  -0.00   0.02
  67   1    -0.00   0.01  -0.03    -0.00  -0.01   0.03    -0.00  -0.00   0.02
  68   1    -0.00   0.00  -0.03    -0.00  -0.00   0.02    -0.00  -0.00   0.02
  69   1    -0.00   0.00  -0.01     0.00  -0.00  -0.00    -0.00  -0.00   0.00
  70   1     0.00  -0.00   0.00     0.00   0.00  -0.02     0.00   0.00  -0.01
  71   1     0.00  -0.00   0.02     0.00   0.01  -0.03     0.00   0.00  -0.02
  72   1     0.00  -0.00   0.02     0.00   0.01  -0.03     0.00   0.00  -0.02
  73   6     0.00   0.00   0.02    -0.00   0.00  -0.00     0.00   0.01   0.00
  74   6    -0.00   0.01   0.03    -0.00   0.00  -0.00     0.00   0.01   0.00
  75   6     0.00   0.01   0.04    -0.00   0.00  -0.00     0.00   0.01   0.00
  76   6     0.00   0.01   0.05    -0.00   0.00   0.00     0.00   0.01  -0.00
  77   6     0.00   0.01   0.02     0.00  -0.00   0.01    -0.00   0.00  -0.00
  78   6     0.00   0.01   0.01     0.00  -0.00   0.01    -0.00  -0.00  -0.00
  79   6     0.00   0.00   0.00     0.00  -0.00   0.01    -0.00  -0.00  -0.00
  80   6     0.00   0.00  -0.01     0.00  -0.00   0.01    -0.00  -0.00  -0.00
  81   6    -0.00  -0.01  -0.03     0.00  -0.00  -0.00     0.00  -0.01   0.00
  82   6    -0.00  -0.01  -0.03     0.00  -0.00  -0.00     0.00  -0.01   0.00
  83   6    -0.00  -0.01  -0.02     0.00  -0.00  -0.00     0.00  -0.01   0.00
  84   6    -0.00  -0.01  -0.01     0.00  -0.00  -0.00     0.00  -0.01   0.00
  85   6     0.00  -0.00   0.03    -0.00   0.00   0.00    -0.00   0.01  -0.00
  86   6     0.00  -0.00   0.03    -0.00   0.00   0.00    -0.00   0.01  -0.00
  87   6     0.00  -0.00   0.02    -0.00   0.00  -0.00    -0.00   0.01  -0.00
  88   6     0.00  -0.00   0.02    -0.00   0.00  -0.00    -0.00   0.01  -0.00
  89  26     0.00   0.03   0.12    -0.00   0.00   0.02     0.00   0.01  -0.01
  90   6     0.00   0.01   0.07    -0.00   0.02   0.19    -0.00  -0.01  -0.14
  91   6     0.00   0.01   0.06    -0.00   0.02   0.14    -0.00  -0.00  -0.10
  92   6     0.00   0.01   0.06    -0.00   0.01   0.07    -0.00   0.00  -0.05
  93   6     0.00   0.01   0.05    -0.00   0.00   0.00     0.00   0.01  -0.00
  94   6    -0.00   0.01   0.06     0.00  -0.00  -0.06     0.00   0.01   0.05
  95   6    -0.00   0.01   0.06     0.00  -0.01  -0.13     0.00   0.02   0.10
  96   6    -0.00   0.01   0.06     0.00  -0.02  -0.17     0.00   0.02   0.13
  97   6    -0.00   0.01   0.06     0.00  -0.01  -0.13     0.00   0.02   0.10
  98   7    -0.00   0.01   0.06     0.00  -0.00  -0.07     0.00   0.01   0.05
  99   6    -0.00   0.01   0.06     0.00  -0.02  -0.17     0.00   0.02   0.12
 100   6    -0.00   0.01   0.05     0.00  -0.01  -0.13     0.00   0.02   0.10
 101   6    -0.00   0.01   0.04     0.00  -0.02  -0.17     0.00   0.02   0.12
 102   6    -0.00   0.01   0.03     0.00  -0.02  -0.12     0.00   0.01   0.09
 103   6     0.00   0.01   0.04     0.00  -0.01  -0.05     0.00   0.01   0.04
 104   7     0.00   0.01   0.05     0.00  -0.01  -0.07     0.00   0.01   0.05
 105   6     0.00   0.01   0.04     0.00  -0.00   0.01    -0.00   0.00  -0.00
 106   6     0.00   0.01   0.05    -0.00   0.01   0.08    -0.00  -0.00  -0.05
 107   6     0.00   0.01   0.05    -0.00   0.02   0.15    -0.00  -0.01  -0.10
 108   6     0.00   0.01   0.06    -0.00   0.02   0.20    -0.00  -0.01  -0.14
 109   6     0.00   0.01   0.07    -0.00   0.02   0.16    -0.00  -0.01  -0.11
 110   7     0.00   0.01   0.06    -0.00   0.01   0.09    -0.00  -0.00  -0.06
 111   6     0.00   0.01   0.07    -0.00   0.02   0.19    -0.00  -0.01  -0.13
 112   6     0.00   0.01   0.07    -0.00   0.02   0.15    -0.00  -0.01  -0.11
 113   7     0.00   0.01   0.06    -0.00   0.01   0.09    -0.00   0.00  -0.06
 114   1     0.00   0.00   0.02    -0.00   0.01   0.07    -0.00  -0.00  -0.05
 115   1     0.00   0.00   0.02    -0.00   0.01   0.04    -0.00  -0.00  -0.03
 116   1    -0.00   0.00   0.02     0.00  -0.00  -0.04     0.00   0.01   0.03
 117   1    -0.00   0.00   0.02     0.00  -0.01  -0.07     0.00   0.01   0.05
 118   1    -0.00   0.00   0.02     0.00  -0.01  -0.06     0.00   0.01   0.05
 119   1    -0.00   0.00   0.01     0.00  -0.01  -0.07     0.00   0.01   0.05
 120   1    -0.00   0.00   0.01     0.00  -0.00  -0.04     0.00   0.00   0.03
 121   1     0.00   0.00   0.01    -0.00   0.00   0.04    -0.00  -0.00  -0.03
 122   1     0.00   0.00   0.02    -0.00   0.01   0.07    -0.00  -0.00  -0.05
 123   1     0.00   0.00   0.02    -0.00   0.01   0.07    -0.00  -0.00  -0.05
 124  26    -0.00  -0.01  -0.09     0.00  -0.01  -0.00    -0.00  -0.01   0.00
 125   6    -0.00   0.01   0.11    -0.00  -0.00   0.00    -0.00   0.02   0.17
 126   6    -0.00   0.01   0.08    -0.00  -0.00   0.01    -0.00   0.01   0.13
 127   6    -0.00   0.01   0.02    -0.00  -0.00   0.00    -0.00   0.00   0.06
 128   6     0.00   0.00  -0.02    -0.00  -0.00   0.00    -0.00  -0.00  -0.00
 129   6     0.00  -0.01  -0.08     0.00  -0.00   0.00     0.00  -0.01  -0.06
 130   6     0.00  -0.01  -0.14     0.00  -0.00   0.00     0.00  -0.02  -0.13
 131   6     0.00  -0.02  -0.19     0.00  -0.00   0.00     0.00  -0.02  -0.17
 132   6     0.00  -0.02  -0.16     0.00  -0.00   0.00     0.00  -0.02  -0.13
 133   7     0.00  -0.01  -0.10     0.00  -0.00   0.00     0.00  -0.01  -0.07
 134   6     0.00  -0.02  -0.19     0.00  -0.00   0.00     0.00  -0.02  -0.17
 135   6     0.00  -0.02  -0.17     0.00  -0.00   0.00     0.00  -0.02  -0.13
 136   6     0.00  -0.03  -0.20     0.00  -0.00   0.01     0.00  -0.03  -0.17
 137   6     0.00  -0.02  -0.16     0.00  -0.00   0.01     0.00  -0.02  -0.12
 138   6     0.00  -0.01  -0.10     0.00  -0.00   0.00     0.00  -0.01  -0.06
 139   7     0.00  -0.01  -0.11     0.00  -0.00   0.00     0.00  -0.01  -0.07
 140   6    -0.00  -0.01  -0.04     0.00  -0.00  -0.00    -0.00  -0.01   0.00
 141   6    -0.00  -0.00   0.01    -0.00  -0.00  -0.01    -0.00  -0.00   0.06
 142   6    -0.00   0.01   0.07    -0.00  -0.01  -0.01    -0.00   0.01   0.13
 143   6    -0.00   0.01   0.10    -0.00  -0.01  -0.01    -0.00   0.01   0.18
 144   6    -0.00   0.01   0.07    -0.00  -0.00  -0.01    -0.00   0.01   0.14
 145   7    -0.00   0.00   0.02    -0.00  -0.00  -0.01    -0.00  -0.00   0.07
 146   6    -0.00   0.01   0.10    -0.00  -0.00  -0.01    -0.00   0.01   0.17
 147   6    -0.00   0.01   0.07    -0.00  -0.00  -0.00    -0.00   0.01   0.14
 148   7    -0.00   0.00   0.02    -0.00  -0.00   0.00    -0.00   0.00   0.07
 149   1    -0.00   0.01   0.04    -0.00  -0.00   0.00    -0.00   0.01   0.07
 150   1    -0.00   0.00   0.03    -0.00  -0.00   0.00    -0.00   0.00   0.04
 151   1     0.00  -0.00  -0.04     0.00  -0.00  -0.00     0.00  -0.01  -0.04
 152   1     0.00  -0.01  -0.07     0.00  -0.00  -0.00     0.00  -0.01  -0.07
 153   1     0.00  -0.01  -0.07     0.00  -0.00   0.00     0.00  -0.01  -0.06
 154   1     0.00  -0.01  -0.07     0.00  -0.00   0.00     0.00  -0.01  -0.06
 155   1     0.00  -0.01  -0.05     0.00  -0.00   0.00     0.00  -0.01  -0.04
 156   1    -0.00   0.00   0.02    -0.00  -0.00  -0.00    -0.00   0.00   0.04
 157   1    -0.00   0.00   0.04    -0.00  -0.00  -0.00    -0.00   0.01   0.07
 158   1    -0.00   0.00   0.04    -0.00  -0.00  -0.00    -0.00   0.01   0.07
 159  26     0.00  -0.01   0.04     0.00   0.00   0.00     0.00   0.00  -0.00
 160   6    -0.00   0.00   0.09     0.00  -0.02  -0.17     0.01  -0.02  -0.15
 161   6    -0.00   0.00   0.06     0.00  -0.02  -0.12     0.00  -0.02  -0.11
 162   6    -0.00  -0.00   0.03     0.00  -0.01  -0.06     0.00  -0.01  -0.05
 163   6    -0.00  -0.01  -0.00     0.00  -0.00  -0.00    -0.00  -0.00   0.00
 164   6     0.00  -0.01  -0.02    -0.00   0.01   0.06    -0.00   0.00   0.05
 165   6     0.00  -0.01  -0.05    -0.00   0.01   0.13    -0.00   0.01   0.11
 166   6     0.00  -0.01  -0.07    -0.00   0.02   0.17    -0.00   0.01   0.15
 167   6     0.00  -0.01  -0.04    -0.00   0.01   0.14    -0.00   0.01   0.12
 168   7     0.00  -0.01  -0.02    -0.00   0.01   0.07    -0.00   0.01   0.06
 169   6     0.00  -0.01  -0.05    -0.00   0.02   0.17    -0.01   0.02   0.15
 170   6     0.00  -0.01  -0.03    -0.00   0.02   0.14    -0.00   0.02   0.12
 171   6     0.00  -0.01  -0.04    -0.00   0.02   0.17    -0.01   0.02   0.15
 172   6     0.00  -0.01  -0.02    -0.00   0.02   0.13    -0.00   0.02   0.11
 173   6     0.00  -0.01   0.00    -0.00   0.01   0.06    -0.00   0.01   0.05
 174   7     0.00  -0.01  -0.00    -0.00   0.01   0.07    -0.00   0.01   0.06
 175   6    -0.00  -0.00   0.03     0.00   0.00   0.00     0.00   0.01  -0.00
 176   6    -0.00  -0.00   0.05     0.00  -0.00  -0.06     0.00   0.00  -0.06
 177   6    -0.00   0.00   0.08     0.00  -0.01  -0.12     0.00  -0.01  -0.12
 178   6    -0.00   0.01   0.10     0.00  -0.02  -0.17     0.00  -0.01  -0.16
 179   6    -0.00   0.00   0.08     0.00  -0.01  -0.13     0.00  -0.01  -0.12
 180   7    -0.00   0.00   0.06     0.00  -0.01  -0.07     0.00  -0.00  -0.07
 181   6    -0.00   0.00   0.09     0.00  -0.02  -0.16     0.01  -0.01  -0.15
 182   6    -0.00   0.00   0.08     0.00  -0.01  -0.13     0.00  -0.01  -0.12
 183   7    -0.00  -0.00   0.05     0.00  -0.01  -0.07     0.00  -0.01  -0.06
 184   1    -0.00   0.00   0.03     0.00  -0.01  -0.06     0.00  -0.01  -0.06
 185   1    -0.00   0.00   0.02     0.00  -0.01  -0.04     0.00  -0.01  -0.03
 186   1     0.00  -0.00  -0.02    -0.00   0.00   0.04    -0.00   0.00   0.03
 187   1     0.00  -0.00  -0.03    -0.00   0.01   0.07    -0.00   0.01   0.06
 188   1     0.00  -0.00  -0.02    -0.00   0.01   0.06    -0.00   0.01   0.06
 189   1     0.00  -0.00  -0.02    -0.00   0.01   0.07    -0.00   0.01   0.06
 190   1    -0.00  -0.00  -0.01    -0.00   0.00   0.04    -0.00   0.01   0.03
 191   1    -0.00   0.00   0.03     0.00  -0.00  -0.04     0.00  -0.00  -0.04
 192   1    -0.00   0.00   0.04     0.00  -0.01  -0.06     0.00  -0.00  -0.06
 193   1    -0.00   0.00   0.03     0.00  -0.01  -0.06     0.00  -0.01  -0.06
                     10                     11                     12
                        a                      a                      a 
 Frequencies --     6.2793                 8.8233                 9.3924
 Red. masses --    13.9303                11.5853                11.7245
 Frc consts  --     0.0000                 0.0000                 0.0000
 IR Inten    --     7.4420                 9.1104                 9.2888
 Raman Activ --     0.0000                 0.0000                 0.0000
 Depolar     --     0.0000                 0.0000                 0.0000
 Atom AN      X      Y      Z        X      Y      Z        X      Y      Z
   1  26    -0.00   0.03  -0.00    -0.00  -0.00   0.00    -0.00  -0.01  -0.01
   2   6    -0.08  -0.05   0.01    -0.05  -0.04   0.06    -0.05  -0.04  -0.06
   3   6    -0.06  -0.07   0.01    -0.04  -0.06   0.07    -0.04  -0.06  -0.07
   4   6    -0.03  -0.05   0.01    -0.02  -0.05   0.06    -0.02  -0.05  -0.06
   5   6     0.00  -0.07   0.01    -0.00  -0.06   0.07    -0.00  -0.06  -0.07
   6   6     0.03  -0.05   0.01     0.02  -0.05   0.06     0.02  -0.05  -0.06
   7   6     0.06  -0.07   0.01     0.04  -0.05   0.08     0.04  -0.06  -0.08
   8   6     0.08  -0.04   0.01     0.05  -0.04   0.07     0.05  -0.04  -0.07
   9   6     0.06  -0.01   0.00     0.04  -0.02   0.04     0.04  -0.02  -0.04
  10   7     0.03  -0.02   0.00     0.02  -0.03   0.04     0.02  -0.03  -0.04
  11   6     0.08   0.02  -0.00     0.05  -0.00   0.01     0.05  -0.00  -0.02
  12   6     0.06   0.05  -0.01     0.04   0.02  -0.02     0.04   0.02   0.02
  13   6     0.08   0.08  -0.01     0.05   0.04  -0.05     0.05   0.04   0.05
  14   6     0.06   0.10  -0.02     0.04   0.05  -0.09     0.04   0.05   0.08
  15   6     0.03   0.08  -0.01     0.02   0.04  -0.07     0.02   0.04   0.07
  16   7     0.03   0.06  -0.01     0.02   0.02  -0.04     0.02   0.02   0.03
  17   6    -0.00   0.10  -0.02    -0.00   0.05  -0.09    -0.00   0.05   0.09
  18   6    -0.03   0.08  -0.01    -0.02   0.04  -0.08    -0.02   0.04   0.07
  19   6    -0.06   0.10  -0.01    -0.04   0.05  -0.09    -0.04   0.05   0.09
  20   6    -0.08   0.07  -0.01    -0.05   0.04  -0.06    -0.06   0.03   0.05
  21   6    -0.07   0.04  -0.01    -0.04   0.02  -0.03    -0.04   0.02   0.02
  22   7    -0.04   0.06  -0.01    -0.02   0.02  -0.04    -0.02   0.02   0.04
  23   6    -0.08   0.01  -0.00    -0.05  -0.00   0.01    -0.05  -0.00  -0.01
  24   6    -0.07  -0.02   0.00    -0.04  -0.02   0.03    -0.04  -0.02  -0.04
  25   7    -0.04  -0.02   0.00    -0.02  -0.03   0.04    -0.02  -0.03  -0.04
  26   1    -0.03  -0.01   0.00    -0.02  -0.01   0.02    -0.02  -0.01  -0.02
  27   1    -0.02  -0.03   0.00    -0.01  -0.02   0.03    -0.01  -0.02  -0.03
  28   1     0.02  -0.03   0.00     0.01  -0.02   0.03     0.01  -0.02  -0.03
  29   1     0.03  -0.01   0.00     0.02  -0.01   0.02     0.02  -0.01  -0.02
  30   1     0.03   0.00  -0.00     0.02   0.00   0.01     0.02  -0.00  -0.01
  31   1     0.03   0.02  -0.00     0.02   0.01  -0.01     0.02   0.01   0.01
  32   1     0.02   0.04  -0.01     0.01   0.02  -0.03     0.01   0.02   0.03
  33   1    -0.00   0.04  -0.01    -0.00   0.02  -0.04    -0.00   0.02   0.04
  34   1    -0.02   0.04  -0.01    -0.01   0.02  -0.03    -0.01   0.02   0.03
  35   1    -0.03   0.02  -0.00    -0.02   0.01  -0.02    -0.02   0.01   0.02
  36   1    -0.03   0.00   0.00    -0.02  -0.00   0.00    -0.02  -0.00  -0.00
  37  26    -0.00   0.03  -0.00     0.00   0.00  -0.02     0.00   0.01   0.02
  38   6    -0.08  -0.05   0.01     0.04   0.04  -0.09     0.07   0.04   0.09
  39   6    -0.06  -0.07   0.01     0.03   0.06  -0.10     0.05   0.06   0.10
  40   6    -0.03  -0.06   0.01     0.01   0.05  -0.08     0.02   0.05   0.08
  41   6    -0.00  -0.07   0.01     0.00   0.06  -0.09     0.00   0.06   0.09
  42   6     0.03  -0.06   0.01    -0.01   0.05  -0.08    -0.02   0.05   0.08
  43   6     0.06  -0.07   0.02    -0.03   0.06  -0.10    -0.05   0.05   0.10
  44   6     0.08  -0.05   0.02    -0.04   0.04  -0.09    -0.06   0.04   0.09
  45   6     0.06  -0.02   0.01    -0.03   0.02  -0.06    -0.05   0.02   0.06
  46   7     0.03  -0.02   0.01    -0.01   0.03  -0.06    -0.03   0.03   0.06
  47   6     0.08   0.01   0.01    -0.03   0.00  -0.03    -0.06   0.00   0.03
  48   6     0.06   0.05  -0.00    -0.03  -0.02   0.02    -0.05  -0.02  -0.02
  49   6     0.08   0.08  -0.01    -0.03  -0.04   0.06    -0.06  -0.03  -0.06
  50   6     0.06   0.10  -0.02    -0.02  -0.06   0.11    -0.05  -0.05  -0.10
  51   6     0.03   0.09  -0.02    -0.01  -0.05   0.09    -0.02  -0.04  -0.08
  52   7     0.03   0.06  -0.01    -0.01  -0.03   0.04    -0.03  -0.02  -0.04
  53   6    -0.00   0.10  -0.03     0.00  -0.06   0.12     0.00  -0.04  -0.11
  54   6    -0.03   0.09  -0.02     0.02  -0.05   0.10     0.02  -0.03  -0.08
  55   6    -0.06   0.10  -0.03     0.03  -0.06   0.11     0.05  -0.04  -0.10
  56   6    -0.08   0.08  -0.02     0.04  -0.04   0.07     0.07  -0.03  -0.06
  57   6    -0.06   0.05  -0.01     0.03  -0.02   0.03     0.05  -0.01  -0.02
  58   7    -0.04   0.06  -0.01     0.02  -0.03   0.05     0.03  -0.02  -0.04
  59   6    -0.08   0.02  -0.01     0.04   0.00  -0.02     0.06   0.00   0.02
  60   6    -0.06  -0.02   0.00     0.03   0.02  -0.05     0.05   0.02   0.05
  61   7    -0.03  -0.02   0.00     0.02   0.03  -0.06     0.03   0.03   0.06
  62   1    -0.03  -0.01   0.00     0.01   0.01  -0.03     0.03   0.01   0.03
  63   1    -0.02  -0.03   0.00     0.01   0.02  -0.04     0.01   0.02   0.04
  64   1     0.02  -0.03   0.01    -0.01   0.02  -0.04    -0.01   0.02   0.04
  65   1     0.03  -0.01   0.01    -0.01   0.01  -0.03    -0.02   0.01   0.03
  66   1     0.03   0.00   0.00    -0.01   0.00  -0.01    -0.02  -0.00   0.01
  67   1     0.03   0.02  -0.00    -0.01  -0.01   0.02    -0.02  -0.01  -0.01
  68   1     0.02   0.04  -0.01    -0.01  -0.02   0.04    -0.01  -0.02  -0.04
  69   1    -0.00   0.04  -0.01     0.00  -0.02   0.05     0.00  -0.02  -0.04
  70   1    -0.02   0.04  -0.01     0.01  -0.02   0.04     0.02  -0.02  -0.04
  71   1    -0.03   0.02  -0.01     0.01  -0.01   0.02     0.03  -0.01  -0.02
  72   1    -0.03   0.00  -0.00     0.01   0.00  -0.01     0.02   0.00   0.01
  73   6     0.00  -0.10   0.01    -0.00  -0.07   0.08    -0.00  -0.08  -0.08
  74   6     0.00  -0.12   0.01    -0.00  -0.08   0.08    -0.00  -0.08  -0.08
  75   6     0.00  -0.12   0.01    -0.00  -0.08   0.08    -0.00  -0.08  -0.08
  76   6     0.00  -0.12   0.01    -0.00  -0.07   0.07    -0.00  -0.07  -0.07
  77   6     0.00   0.03  -0.00    -0.00   0.08  -0.08     0.00   0.09   0.07
  78   6     0.00   0.05  -0.00    -0.00   0.09  -0.08     0.00   0.09   0.07
  79   6     0.00   0.06  -0.01    -0.00   0.09  -0.08     0.00   0.09   0.07
  80   6     0.00   0.07  -0.01    -0.00   0.08  -0.08     0.00   0.08   0.07
  81   6     0.00   0.08  -0.01    -0.00  -0.08   0.08     0.00  -0.08  -0.07
  82   6     0.00   0.07  -0.01    -0.00  -0.08   0.09     0.00  -0.09  -0.08
  83   6     0.00   0.05  -0.01    -0.00  -0.08   0.09     0.00  -0.10  -0.08
  84   6     0.00   0.03  -0.01    -0.00  -0.08   0.09     0.00  -0.09  -0.08
  85   6    -0.00  -0.12   0.02     0.00   0.06  -0.08     0.00   0.07   0.08
  86   6    -0.00  -0.12   0.02     0.00   0.07  -0.10     0.00   0.08   0.09
  87   6    -0.00  -0.12   0.02     0.00   0.08  -0.10     0.00   0.09   0.10
  88   6    -0.00  -0.10   0.02     0.00   0.07  -0.10     0.00   0.08   0.10
  89  26     0.00  -0.10   0.01    -0.00   0.01  -0.00    -0.00   0.02   0.02
  90   6     0.05  -0.09   0.00     0.06  -0.03   0.05     0.05  -0.03  -0.03
  91   6     0.04  -0.10   0.01     0.04  -0.05   0.06     0.04  -0.05  -0.05
  92   6     0.02  -0.09   0.01     0.02  -0.04   0.05     0.02  -0.04  -0.04
  93   6     0.00  -0.10   0.01    -0.00  -0.05   0.06    -0.00  -0.05  -0.05
  94   6    -0.02  -0.09   0.01    -0.02  -0.04   0.04    -0.02  -0.04  -0.04
  95   6    -0.04  -0.10   0.01    -0.04  -0.05   0.05    -0.04  -0.05  -0.05
  96   6    -0.05  -0.09   0.01    -0.06  -0.03   0.03    -0.05  -0.03  -0.03
  97   6    -0.04  -0.07   0.01    -0.05  -0.02   0.02    -0.04  -0.01  -0.01
  98   7    -0.02  -0.08   0.01    -0.03  -0.02   0.02    -0.02  -0.02  -0.02
  99   6    -0.05  -0.05   0.01    -0.06   0.00  -0.01    -0.05   0.01   0.02
 100   6    -0.04  -0.03   0.01    -0.05   0.02  -0.03    -0.04   0.03   0.03
 101   6    -0.05  -0.01   0.01    -0.06   0.04  -0.05    -0.05   0.05   0.05
 102   6    -0.04   0.01   0.00    -0.04   0.06  -0.06    -0.04   0.07   0.06
 103   6    -0.02  -0.00   0.00    -0.02   0.05  -0.05    -0.02   0.06   0.05
 104   7    -0.02  -0.03   0.00    -0.03   0.03  -0.03    -0.02   0.04   0.04
 105   6     0.00   0.01  -0.00    -0.00   0.06  -0.06     0.00   0.07   0.06
 106   6     0.02  -0.00  -0.00     0.02   0.05  -0.05     0.02   0.06   0.05
 107   6     0.04   0.01  -0.00     0.04   0.06  -0.06     0.04   0.07   0.06
 108   6     0.05  -0.01  -0.00     0.06   0.04  -0.04     0.05   0.05   0.05
 109   6     0.04  -0.03   0.00     0.05   0.02  -0.02     0.04   0.03   0.03
 110   7     0.02  -0.03   0.00     0.02   0.03  -0.03     0.02   0.04   0.03
 111   6     0.05  -0.05   0.00     0.06   0.01   0.00     0.05   0.01   0.01
 112   6     0.04  -0.07   0.00     0.05  -0.01   0.02     0.04  -0.01  -0.01
 113   7     0.02  -0.08   0.01     0.02  -0.02   0.03     0.02  -0.02  -0.02
 114   1     0.02  -0.03   0.00     0.02  -0.01   0.01     0.02  -0.01  -0.01
 115   1     0.01  -0.03   0.00     0.01  -0.02   0.02     0.01  -0.02  -0.02
 116   1    -0.01  -0.03   0.00    -0.01  -0.02   0.02    -0.01  -0.02  -0.02
 117   1    -0.02  -0.02   0.00    -0.02  -0.01   0.01    -0.02  -0.01  -0.01
 118   1    -0.02  -0.01   0.00    -0.02   0.00  -0.00    -0.02   0.00   0.01
 119   1    -0.02  -0.00   0.00    -0.02   0.01  -0.02    -0.02   0.02   0.02
 120   1    -0.01   0.01   0.00    -0.01   0.02  -0.02    -0.01   0.03   0.02
 121   1     0.01   0.01  -0.00     0.01   0.02  -0.02     0.01   0.02   0.02
 122   1     0.02  -0.00  -0.00     0.02   0.01  -0.01     0.02   0.02   0.01
 123   1     0.02  -0.01  -0.00     0.02   0.00   0.00     0.02   0.00   0.00
 124  26     0.00   0.17  -0.02    -0.00   0.00  -0.01     0.00  -0.00   0.01
 125   6     0.00   0.08   0.01    -0.06   0.04  -0.05    -0.05   0.04   0.04
 126   6     0.00   0.08   0.00    -0.05   0.06  -0.07    -0.04   0.06   0.06
 127   6     0.00   0.08  -0.00    -0.02   0.05  -0.06    -0.02   0.05   0.05
 128   6     0.00   0.08  -0.01    -0.00   0.06  -0.06     0.00   0.06   0.05
 129   6     0.00   0.08  -0.01     0.02   0.05  -0.06     0.02   0.05   0.05
 130   6     0.00   0.08  -0.02     0.04   0.06  -0.07     0.04   0.06   0.06
 131   6    -0.00   0.08  -0.02     0.06   0.04  -0.05     0.05   0.04   0.05
 132   6     0.00   0.08  -0.02     0.05   0.02  -0.03     0.04   0.02   0.03
 133   7     0.00   0.08  -0.01     0.03   0.03  -0.04     0.02   0.03   0.03
 134   6    -0.00   0.08  -0.02     0.06   0.00  -0.01     0.05   0.00   0.01
 135   6     0.00   0.08  -0.02     0.05  -0.02   0.02     0.04  -0.02  -0.01
 136   6     0.00   0.08  -0.02     0.06  -0.04   0.04     0.05  -0.04  -0.03
 137   6     0.00   0.08  -0.02     0.04  -0.05   0.06     0.04  -0.06  -0.05
 138   6     0.00   0.08  -0.01     0.02  -0.04   0.05     0.02  -0.05  -0.04
 139   7     0.00   0.08  -0.01     0.03  -0.02   0.02     0.02  -0.03  -0.02
 140   6     0.00   0.08  -0.01    -0.00  -0.06   0.06     0.00  -0.06  -0.05
 141   6     0.00   0.08  -0.00    -0.02  -0.04   0.05    -0.02  -0.05  -0.04
 142   6     0.00   0.08   0.00    -0.05  -0.05   0.06    -0.04  -0.06  -0.05
 143   6     0.00   0.08   0.00    -0.06  -0.04   0.04    -0.05  -0.04  -0.04
 144   6     0.00   0.08   0.00    -0.05  -0.02   0.02    -0.04  -0.02  -0.02
 145   7     0.00   0.09  -0.00    -0.03  -0.02   0.02    -0.02  -0.03  -0.02
 146   6     0.00   0.08   0.01    -0.06   0.00  -0.01    -0.05  -0.00   0.01
 147   6     0.00   0.08   0.00    -0.05   0.02  -0.03    -0.04   0.02   0.02
 148   7     0.00   0.08  -0.00    -0.03   0.03  -0.04    -0.02   0.03   0.03
 149   1     0.00   0.02   0.00    -0.02   0.01  -0.02    -0.02   0.01   0.01
 150   1     0.00   0.02   0.00    -0.01   0.02  -0.02    -0.01   0.02   0.02
 151   1    -0.00   0.02  -0.01     0.01   0.02  -0.02     0.01   0.02   0.02
 152   1    -0.00   0.02  -0.01     0.02   0.01  -0.02     0.02   0.01   0.01
 153   1    -0.00   0.02  -0.01     0.02   0.00  -0.00     0.02   0.00   0.00
 154   1    -0.00   0.02  -0.01     0.02  -0.01   0.01     0.02  -0.01  -0.01
 155   1     0.00   0.02  -0.01     0.01  -0.02   0.02     0.01  -0.02  -0.02
 156   1     0.00   0.02   0.00    -0.01  -0.02   0.02    -0.01  -0.02  -0.02
 157   1     0.00   0.02   0.00    -0.02  -0.01   0.01    -0.02  -0.01  -0.01
 158   1     0.00   0.02   0.00    -0.02   0.00  -0.00    -0.02   0.00   0.00
 159  26     0.00  -0.10   0.01     0.00  -0.01   0.03     0.00  -0.02  -0.05
 160   6    -0.05  -0.01  -0.02     0.06  -0.04   0.07     0.05  -0.05  -0.07
 161   6    -0.04   0.01  -0.02     0.04  -0.06   0.08     0.04  -0.07  -0.08
 162   6    -0.02  -0.00  -0.01     0.02  -0.05   0.07     0.02  -0.06  -0.07
 163   6     0.00   0.01  -0.00    -0.00  -0.06   0.07     0.00  -0.07  -0.07
 164   6     0.02  -0.00   0.00    -0.02  -0.05   0.06    -0.02  -0.06  -0.07
 165   6     0.04   0.01   0.01    -0.04  -0.06   0.08    -0.04  -0.07  -0.08
 166   6     0.06  -0.01   0.01    -0.06  -0.04   0.06    -0.05  -0.05  -0.07
 167   6     0.04  -0.03   0.01    -0.04  -0.02   0.04    -0.04  -0.03  -0.05
 168   7     0.02  -0.02   0.01    -0.02  -0.03   0.05    -0.02  -0.04  -0.05
 169   6     0.05  -0.04   0.02    -0.05  -0.00   0.02    -0.05  -0.01  -0.03
 170   6     0.04  -0.07   0.02    -0.04   0.01  -0.01    -0.04   0.01  -0.00
 171   6     0.05  -0.08   0.03    -0.06   0.03  -0.03    -0.05   0.03   0.02
 172   6     0.04  -0.10   0.02    -0.04   0.04  -0.06    -0.04   0.05   0.05
 173   6     0.02  -0.09   0.02    -0.02   0.04  -0.04    -0.02   0.04   0.04
 174   7     0.02  -0.08   0.01    -0.02   0.02  -0.02    -0.02   0.02   0.01
 175   6     0.00  -0.10   0.01     0.00   0.05  -0.06     0.00   0.05   0.05
 176   6    -0.02  -0.09   0.00     0.02   0.04  -0.04     0.02   0.04   0.04
 177   6    -0.04  -0.10   0.00     0.04   0.04  -0.05     0.04   0.05   0.05
 178   6    -0.05  -0.09  -0.01     0.06   0.03  -0.03     0.05   0.03   0.02
 179   6    -0.04  -0.07  -0.01     0.04   0.01  -0.00     0.04   0.01  -0.00
 180   7    -0.02  -0.08   0.00     0.02   0.02  -0.01     0.02   0.02   0.01
 181   6    -0.05  -0.05  -0.01     0.05  -0.00   0.02     0.05  -0.01  -0.03
 182   6    -0.04  -0.03  -0.01     0.04  -0.02   0.04     0.04  -0.03  -0.05
 183   7    -0.02  -0.03  -0.01     0.02  -0.03   0.05     0.02  -0.04  -0.05
 184   1    -0.02  -0.00  -0.01     0.02  -0.01   0.02     0.02  -0.02  -0.02
 185   1    -0.01   0.01  -0.01     0.01  -0.02   0.03     0.01  -0.03  -0.03
 186   1     0.01   0.01   0.00    -0.01  -0.02   0.03    -0.01  -0.03  -0.03
 187   1     0.02  -0.00   0.01    -0.02  -0.01   0.02    -0.02  -0.02  -0.02
 188   1     0.02  -0.01   0.01    -0.02  -0.00   0.01    -0.02  -0.00  -0.01
 189   1     0.02  -0.02   0.01    -0.02   0.01  -0.01    -0.02   0.01   0.01
 190   1     0.01  -0.03   0.01    -0.01   0.02  -0.02    -0.01   0.02   0.02
 191   1    -0.01  -0.03   0.00     0.01   0.02  -0.02     0.01   0.02   0.02
 192   1    -0.02  -0.03  -0.00     0.02   0.01  -0.01     0.02   0.01   0.01
 193   1    -0.02  -0.01  -0.00     0.02  -0.00   0.01     0.02  -0.00  -0.01
                     13                     14                     15
                        a                      a                      a 
 Frequencies --    10.6788                15.3254                20.4552
 Red. masses --    12.8590                12.6220                12.4836
 Frc consts  --     0.0000                 0.0000                 0.0000
 IR Inten    --     0.0873                 1.0327                16.2408
 Raman Activ --     0.0000                 0.0000                 0.0000
 Depolar     --     0.0000                 0.0000                 0.0000
 Atom AN      X      Y      Z        X      Y      Z        X      Y      Z
   1  26    -0.00  -0.00  -0.04     0.00  -0.00  -0.05     0.00   0.01  -0.06
   2   6    -0.01  -0.01  -0.13    -0.00  -0.00  -0.11     0.01   0.01  -0.10
   3   6    -0.01  -0.01  -0.15    -0.00  -0.00  -0.10     0.01   0.02  -0.07
   4   6    -0.00  -0.01  -0.12    -0.00  -0.00  -0.08     0.01   0.02  -0.05
   5   6    -0.00  -0.01  -0.13     0.00  -0.00  -0.07     0.00   0.02  -0.03
   6   6     0.00  -0.01  -0.13     0.00  -0.00  -0.08    -0.00   0.02  -0.05
   7   6     0.01  -0.01  -0.16     0.00  -0.00  -0.10    -0.01   0.02  -0.07
   8   6     0.01  -0.01  -0.15     0.00  -0.00  -0.11    -0.01   0.01  -0.10
   9   6     0.01  -0.00  -0.10     0.00  -0.00  -0.08    -0.01   0.01  -0.08
  10   7     0.00  -0.01  -0.09     0.00  -0.00  -0.07    -0.00   0.01  -0.06
  11   6     0.01  -0.00  -0.05     0.00  -0.00  -0.06    -0.01   0.00  -0.08
  12   6     0.01   0.00   0.02     0.00   0.00  -0.01    -0.01  -0.00  -0.03
  13   6     0.01   0.01   0.08     0.00   0.00   0.04    -0.01  -0.00   0.01
  14   6     0.01   0.01   0.16     0.00   0.00   0.10    -0.01  -0.01   0.08
  15   6     0.00   0.01   0.13     0.00   0.00   0.09    -0.00  -0.01   0.07
  16   7     0.00   0.00   0.06     0.00   0.00   0.03    -0.00  -0.00   0.01
  17   6    -0.00   0.01   0.18    -0.00   0.00   0.12     0.00  -0.01   0.11
  18   6    -0.01   0.01   0.14    -0.00   0.00   0.09     0.00  -0.01   0.07
  19   6    -0.01   0.01   0.17    -0.00   0.00   0.10     0.01  -0.01   0.08
  20   6    -0.01   0.01   0.10    -0.00   0.00   0.04     0.01  -0.00   0.01
  21   6    -0.01   0.00   0.03    -0.00   0.00  -0.00     0.01  -0.00  -0.02
  22   7    -0.01   0.00   0.06    -0.00   0.00   0.03     0.01  -0.00   0.01
  23   6    -0.01  -0.00  -0.04    -0.00  -0.00  -0.06     0.01   0.00  -0.08
  24   6    -0.01  -0.01  -0.08    -0.00  -0.00  -0.08     0.01   0.01  -0.08
[...]
 140   6    -0.00  -0.00   0.00     0.00   0.00  -0.00    -0.00  -0.00   0.00
 141   6     0.00   0.00  -0.00    -0.00  -0.00   0.00    -0.00  -0.00   0.00
 142   6     0.06  -0.01   0.00    -0.07   0.01  -0.00    -0.02   0.00  -0.00
 143   6     0.00  -0.03   0.00    -0.00   0.05  -0.01     0.00   0.01  -0.00
 144   6    -0.00  -0.00   0.00     0.00   0.00  -0.00     0.00   0.00  -0.00
 145   7    -0.00   0.00  -0.00     0.00  -0.00   0.00     0.00  -0.00  -0.00
 146   6     0.00  -0.00   0.00     0.00   0.00  -0.00    -0.00  -0.00   0.00
 147   6    -0.00   0.00  -0.00    -0.00   0.00  -0.00     0.00  -0.00   0.00
 148   7    -0.00  -0.00   0.00    -0.00  -0.00   0.00     0.00   0.00  -0.00
 149   1    -0.00  -0.05   0.01    -0.01  -0.16   0.02     0.01   0.19  -0.02
 150   1    -0.09  -0.01   0.00    -0.25  -0.04   0.00     0.32   0.05  -0.01
 151   1     0.13  -0.02   0.00     0.35  -0.05   0.01     0.06  -0.01   0.00
 152   1     0.00  -0.07   0.01     0.01  -0.21   0.02     0.00  -0.03   0.00
 153   1    -0.00   0.00  -0.00    -0.00  -0.01   0.00    -0.00   0.00  -0.00
 154   1     0.01   0.12  -0.01    -0.01  -0.15   0.02     0.01   0.15  -0.02
 155   1     0.21   0.03  -0.00    -0.24  -0.04   0.00     0.25   0.04  -0.00
 156   1    -0.18   0.03  -0.00     0.24  -0.04   0.00     0.05  -0.01   0.00
 157   1    -0.01   0.11  -0.01     0.01  -0.15   0.02     0.00  -0.03   0.00
 158   1     0.00   0.00  -0.00     0.00  -0.01   0.00    -0.00   0.00  -0.00
 159  26    -0.00   0.00  -0.00     0.00  -0.00   0.00     0.00   0.00  -0.00
 160   6    -0.00  -0.04   0.00     0.00   0.00  -0.00    -0.00  -0.03   0.00
 161   6    -0.06  -0.01   0.00     0.01   0.00  -0.00    -0.04  -0.00   0.00
 162   6    -0.00   0.00  -0.00     0.00  -0.00   0.00    -0.00   0.00  -0.00
 163   6     0.00  -0.00   0.00    -0.00   0.00  -0.00    -0.00  -0.00   0.00
 164   6     0.00   0.00  -0.00    -0.00  -0.00   0.00     0.00   0.00  -0.00
 165   6     0.10  -0.01   0.00    -0.08   0.01  -0.00     0.01  -0.00   0.00
 166   6     0.00  -0.06   0.01    -0.00   0.05  -0.01     0.00  -0.01   0.00
 167   6    -0.00  -0.00   0.00     0.00   0.00  -0.00    -0.00   0.00  -0.00
 168   7    -0.00   0.00  -0.00     0.00  -0.00   0.00    -0.00   0.00  -0.00
 169   6     0.00  -0.00   0.00    -0.00   0.00  -0.00    -0.00  -0.00   0.00
 170   6     0.00  -0.00   0.00     0.00  -0.00   0.00     0.00  -0.00   0.00
 171   6    -0.00  -0.03   0.00    -0.00  -0.03   0.00    -0.00  -0.07   0.01
 172   6    -0.05  -0.01   0.00    -0.05  -0.01   0.00    -0.12  -0.01   0.00
 173   6    -0.00   0.00  -0.00    -0.00   0.00  -0.00    -0.00   0.00  -0.00
 174   7     0.00   0.00  -0.00     0.00   0.00  -0.00     0.00   0.00  -0.00
 175   6     0.00  -0.00   0.00    -0.00   0.00  -0.00    -0.00  -0.00   0.00
 176   6     0.00   0.00  -0.00    -0.00  -0.00   0.00    -0.00  -0.00   0.00
 177   6     0.10  -0.01   0.00    -0.07   0.01  -0.00    -0.04   0.00  -0.00
 178   6     0.00  -0.07   0.01    -0.00   0.05  -0.00     0.00   0.02  -0.00
 179   6    -0.00  -0.00   0.00     0.00   0.00  -0.00     0.00   0.00  -0.00
 180   7    -0.00   0.00  -0.00     0.00  -0.00   0.00     0.00  -0.00   0.00
 181   6     0.00  -0.00   0.00    -0.00   0.00  -0.00    -0.00  -0.00   0.00
 182   6     0.00  -0.00   0.00    -0.00  -0.00   0.00     0.00  -0.00   0.00
 183   7     0.00   0.00  -0.00     0.00  -0.00   0.00     0.00   0.00  -0.00
 184   1     0.01   0.12  -0.01    -0.00  -0.01   0.00     0.01   0.08  -0.01
 185   1     0.19   0.03  -0.00    -0.02  -0.00   0.00     0.14   0.02  -0.00
 186   1    -0.32   0.05  -0.01     0.28  -0.04   0.01    -0.05   0.01  -0.00
 187   1    -0.01   0.19  -0.02     0.01  -0.16   0.02    -0.00   0.03  -0.00
 188   1     0.00   0.01  -0.00    -0.00  -0.00   0.00    -0.00   0.00  -0.00
 189   1     0.01   0.11  -0.01     0.01   0.08  -0.01     0.02   0.23  -0.02
 190   1     0.17   0.03  -0.00     0.15   0.02  -0.00     0.38   0.06  -0.00
 191   1    -0.34   0.05  -0.00     0.24  -0.04   0.00     0.13  -0.02   0.00
 192   1    -0.01   0.21  -0.02     0.01  -0.14   0.02     0.00  -0.07   0.01
 193   1     0.00   0.01  -0.00    -0.00  -0.00   0.00    -0.00   0.00  -0.00
                    571                    572                    573
                        a                      a                      a 
 Frequencies --  3166.5364              3166.6105              3166.8563
 Red. masses --     1.9635                 1.9634                 1.9654
 Frc consts  --     0.0000                 0.0000                 0.0000
 IR Inten    --    21.3168                37.0353               927.2493
 Raman Activ --     0.0000                 0.0000                 0.0000
 Depolar     --     0.0000                 0.0000                 0.0000
 Atom AN      X      Y      Z        X      Y      Z        X      Y      Z
   1  26     0.00  -0.00   0.00     0.00  -0.00   0.00     0.00  -0.00   0.00
   2   6    -0.00   0.02  -0.00    -0.00   0.01  -0.00    -0.00   0.03  -0.00
   3   6    -0.03   0.00  -0.00    -0.02   0.00  -0.00    -0.04   0.00  -0.00
   4   6    -0.00  -0.00   0.00    -0.00  -0.00   0.00    -0.00  -0.00   0.00
   5   6    -0.00   0.00  -0.00    -0.00   0.00  -0.00    -0.00   0.00  -0.00
   6   6    -0.00   0.00  -0.00    -0.00   0.00  -0.00    -0.00   0.00  -0.00
   7   6    -0.02  -0.00  -0.00    -0.01  -0.00  -0.00    -0.04  -0.00  -0.00
   8   6     0.00  -0.01   0.00     0.00  -0.00   0.00     0.00  -0.02   0.00
   9   6     0.00  -0.00   0.00     0.00  -0.00   0.00     0.00  -0.00   0.00
  10   7     0.00   0.00  -0.00     0.00   0.00   0.00     0.00   0.00   0.00
  11   6    -0.00  -0.00  -0.00    -0.00  -0.00   0.00    -0.00  -0.00  -0.00
  12   6     0.00   0.00  -0.00     0.00   0.00  -0.00    -0.00  -0.00  -0.00
  13   6    -0.00  -0.00  -0.00    -0.00  -0.00   0.00     0.00  -0.01  -0.00
  14   6    -0.00   0.00  -0.00     0.00   0.00   0.00     0.01  -0.00   0.00
  15   6     0.00  -0.00  -0.00     0.00  -0.00   0.00     0.00   0.00   0.00
  16   7     0.00  -0.00   0.00     0.00  -0.00  -0.00    -0.00   0.00   0.00
  17   6    -0.00   0.00  -0.00     0.00   0.00  -0.00     0.00   0.00   0.00
  18   6     0.00  -0.00  -0.00     0.00  -0.00   0.00     0.00  -0.00   0.00
  19   6     0.00  -0.00   0.00     0.00   0.00   0.00     0.01   0.00   0.00
  20   6     0.00   0.00  -0.00     0.00   0.00  -0.00     0.00   0.01  -0.00
  21   6     0.00  -0.00   0.00    -0.00  -0.00   0.00    -0.00   0.00  -0.00
  22   7     0.00   0.00   0.00    -0.00  -0.00  -0.00    -0.00  -0.00   0.00
  23   6    -0.00   0.00  -0.00    -0.00   0.00  -0.00    -0.00   0.00  -0.00
  24   6     0.00   0.00   0.00     0.00   0.00   0.00     0.00   0.00   0.00
  25   7     0.00  -0.00   0.00     0.00  -0.00   0.00     0.00  -0.00  -0.00
  26   1     0.00  -0.06   0.00     0.00  -0.03   0.00     0.01  -0.08   0.00
  27   1     0.10  -0.01   0.00     0.06  -0.01   0.00     0.14  -0.02   0.00
  28   1     0.06   0.01   0.00     0.02   0.00   0.00     0.12   0.02   0.00
  29   1     0.00   0.04  -0.00     0.00   0.01  -0.00     0.00   0.07  -0.00
  30   1    -0.00   0.00   0.00    -0.00   0.00   0.00    -0.00   0.00   0.00
  31   1    -0.00   0.00  -0.00    -0.00   0.00   0.00    -0.00   0.02   0.00
  32   1     0.00  -0.00   0.00     0.00   0.00   0.00    -0.02   0.00  -0.00
  33   1     0.00   0.00   0.00    -0.00   0.00   0.00    -0.00  -0.00  -0.00
  34   1    -0.00  -0.00  -0.00    -0.00  -0.00  -0.00    -0.02  -0.00  -0.00
  35   1    -0.00  -0.00   0.00    -0.00  -0.00   0.00    -0.00  -0.02   0.00
  36   1    -0.00  -0.00   0.00    -0.00  -0.00   0.00    -0.00  -0.00   0.00
  37  26    -0.00   0.00   0.00    -0.00  -0.00   0.00    -0.00   0.00   0.00
  38   6     0.00  -0.03  -0.01     0.00  -0.00  -0.00     0.00  -0.04  -0.01
  39   6     0.05  -0.01  -0.00     0.01  -0.00  -0.00     0.06  -0.01  -0.00
  40   6     0.00   0.00   0.00     0.00   0.00   0.00     0.00   0.00   0.00
  41   6     0.00  -0.00  -0.00     0.00   0.00   0.00     0.00  -0.00  -0.00
  42   6     0.00  -0.00  -0.00     0.00  -0.00  -0.00     0.00  -0.00  -0.00
  43   6     0.02   0.00   0.00     0.01   0.00   0.00     0.04   0.01   0.00
  44   6    -0.00   0.01   0.00    -0.00   0.01   0.00     0.00   0.03   0.00
  45   6    -0.00   0.00   0.00    -0.00   0.00   0.00    -0.00   0.00   0.00
  46   7    -0.00  -0.00  -0.00    -0.00  -0.00  -0.00    -0.00  -0.00  -0.00
  47   6     0.00   0.00   0.00     0.00   0.00   0.00     0.00   0.00   0.00
  48   6     0.00  -0.00  -0.00     0.00   0.00  -0.00     0.00   0.00   0.00
  49   6    -0.00   0.00   0.00    -0.00   0.00   0.00    -0.00   0.01   0.00
  50   6    -0.00   0.00   0.00    -0.00   0.00   0.00    -0.01   0.00   0.00
  51   6    -0.00  -0.00  -0.00    -0.00  -0.00  -0.00    -0.00  -0.00  -0.00
  52   7    -0.00   0.00   0.00     0.00  -0.00   0.00     0.00  -0.00  -0.00
  53   6     0.00  -0.00  -0.00    -0.00   0.00   0.00    -0.00  -0.00   0.00
  54   6    -0.00   0.00   0.00    -0.00   0.00   0.00    -0.00   0.00   0.00
  55   6    -0.00  -0.00  -0.00    -0.00  -0.00  -0.00    -0.01  -0.00  -0.00
  56   6    -0.00  -0.00  -0.00    -0.00  -0.00  -0.00    -0.00  -0.01  -0.00
  57   6     0.00   0.00   0.00     0.00  -0.00   0.00     0.00  -0.00  -0.00
  58   7    -0.00   0.00  -0.00     0.00   0.00  -0.00     0.00   0.00   0.00
  59   6     0.00  -0.00  -0.00     0.00  -0.00  -0.00     0.00  -0.00  -0.00
  60   6    -0.00  -0.00  -0.00    -0.00  -0.00  -0.00    -0.00  -0.00  -0.00
  61   7    -0.00   0.00   0.00    -0.00   0.00   0.00    -0.00   0.00   0.00
  62   1    -0.01   0.09   0.02    -0.00   0.01   0.00    -0.01   0.11   0.02
  63   1    -0.16   0.02   0.00    -0.02   0.00   0.00    -0.18   0.03   0.00
  64   1    -0.07  -0.01  -0.00    -0.03  -0.00  -0.00    -0.14  -0.02  -0.00
  65   1    -0.00  -0.04  -0.01    -0.00  -0.02  -0.00    -0.00  -0.09  -0.01
  66   1     0.00  -0.00  -0.00     0.00  -0.00  -0.00     0.00  -0.00  -0.00
  67   1     0.00  -0.00  -0.00     0.00  -0.00  -0.00     0.00  -0.02  -0.00
  68   1     0.00  -0.00  -0.00     0.00  -0.00  -0.00     0.02  -0.00  -0.00
  69   1     0.00  -0.00  -0.00     0.00   0.00  -0.00     0.00   0.00  -0.00
  70   1     0.00   0.00   0.00     0.00   0.00   0.00     0.02   0.00   0.00
  71   1     0.00   0.00   0.00     0.00   0.00   0.00     0.00   0.02   0.00
  72   1     0.00   0.00   0.00     0.00   0.00   0.00     0.00   0.00   0.00
  73   6     0.00   0.00  -0.00     0.00   0.00  -0.00     0.00   0.00  -0.00
  74   6    -0.00  -0.00   0.00    -0.00  -0.00   0.00    -0.00  -0.00   0.00
  75   6     0.00  -0.00   0.00     0.00  -0.00   0.00     0.00  -0.00   0.00
  76   6    -0.00   0.00  -0.00    -0.00   0.00  -0.00    -0.00   0.00  -0.00
  77   6     0.00  -0.00  -0.00    -0.00   0.00  -0.00     0.00   0.00  -0.00
  78   6     0.00   0.00  -0.00     0.00  -0.00   0.00    -0.00  -0.00   0.00
  79   6    -0.00   0.00  -0.00    -0.00  -0.00   0.00     0.00  -0.00   0.00
  80   6     0.00  -0.00   0.00     0.00   0.00  -0.00    -0.00   0.00   0.00
  81   6    -0.00  -0.00   0.00     0.00   0.00  -0.00     0.00   0.00  -0.00
  82   6     0.00   0.00  -0.00    -0.00  -0.00   0.00    -0.00  -0.00   0.00
  83   6    -0.00   0.00  -0.00     0.00  -0.00   0.00     0.00  -0.00   0.00
  84   6     0.00  -0.00   0.00    -0.00   0.00  -0.00    -0.00   0.00  -0.00
  85   6     0.00  -0.00   0.00     0.00   0.00  -0.00     0.00  -0.00   0.00
  86   6    -0.00   0.00  -0.00     0.00  -0.00   0.00    -0.00   0.00  -0.00
  87   6     0.00   0.00   0.00    -0.00  -0.00  -0.00     0.00   0.00   0.00
  88   6    -0.00  -0.00  -0.00     0.00   0.00   0.00    -0.00  -0.00  -0.00
  89  26    -0.00  -0.00   0.00    -0.00  -0.00   0.00    -0.00  -0.00   0.00
  90   6     0.00   0.06  -0.01     0.00   0.04  -0.01     0.00   0.04  -0.00
  91   6     0.10   0.01  -0.00     0.07   0.01  -0.00     0.07   0.01  -0.00
  92   6     0.00  -0.00   0.00     0.00  -0.00   0.00     0.00  -0.00   0.00
  93   6     0.00   0.00  -0.00     0.00   0.00  -0.00     0.00   0.00  -0.00
  94   6     0.00   0.00  -0.00     0.00   0.00  -0.00     0.00   0.00  -0.00
  95   6     0.06  -0.01   0.00     0.04  -0.00   0.00     0.05  -0.01   0.00
  96   6     0.00  -0.04   0.00     0.00  -0.02   0.00     0.00  -0.03   0.00
  97   6    -0.00  -0.00   0.00    -0.00  -0.00   0.00    -0.00  -0.00   0.00
  98   7    -0.00   0.00  -0.00    -0.00   0.00  -0.00    -0.00   0.00  -0.00
  99   6     0.00   0.00  -0.00     0.00   0.00  -0.00    -0.00  -0.00   0.00
 100   6    -0.00   0.00  -0.00    -0.00   0.00  -0.00     0.00  -0.00   0.00
 101   6     0.00   0.04  -0.00     0.00   0.05  -0.01    -0.00  -0.04   0.00
 102   6     0.07   0.01  -0.00     0.08   0.01  -0.00    -0.06  -0.01   0.00
 103   6     0.00  -0.00   0.00     0.00  -0.00   0.00    -0.00   0.00  -0.00
 104   7    -0.00  -0.00   0.00    -0.00  -0.00   0.00     0.00   0.00  -0.00
 105   6     0.00   0.00  -0.00     0.00   0.00  -0.00    -0.00   0.00  -0.00
 106   6     0.00   0.00  -0.00     0.00   0.00  -0.00    -0.00  -0.00   0.00
 107   6     0.06  -0.01   0.00     0.06  -0.01   0.00    -0.07   0.01  -0.00
 108   6     0.00  -0.04   0.00     0.00  -0.04   0.00    -0.00   0.04  -0.01
 109   6    -0.00  -0.00   0.00    -0.00  -0.00   0.00     0.00   0.00  -0.00
 110   7    -0.00   0.00  -0.00    -0.00   0.00  -0.00     0.00  -0.00   0.00
 111   6     0.00   0.00  -0.00     0.00   0.00  -0.00    -0.00   0.00  -0.00
 112   6    -0.00   0.00  -0.00    -0.00   0.00  -0.00    -0.00   0.00  -0.00
 113   7    -0.00  -0.00   0.00    -0.00  -0.00   0.00    -0.00  -0.00   0.00
 114   1    -0.01  -0.19   0.02    -0.01  -0.14   0.02    -0.01  -0.13   0.02
 115   1    -0.34  -0.05   0.01    -0.24  -0.04   0.00    -0.22  -0.03   0.00
 116   1    -0.20   0.03  -0.00    -0.12   0.02  -0.00    -0.16   0.02  -0.00
 117   1    -0.01   0.12  -0.01    -0.00   0.07  -0.01    -0.01   0.10  -0.01
 118   1     0.00  -0.00   0.00     0.00  -0.00   0.00    -0.00   0.00  -0.00
 119   1    -0.01  -0.13   0.01    -0.01  -0.16   0.02     0.01   0.13  -0.01
 120   1    -0.21  -0.03   0.00    -0.27  -0.04   0.01     0.21   0.03  -0.00
 121   1    -0.21   0.03  -0.00    -0.20   0.03  -0.00     0.23  -0.03   0.00
 122   1    -0.01   0.12  -0.01    -0.01   0.11  -0.01     0.01  -0.14   0.02
 123   1     0.00  -0.00   0.00     0.00  -0.00   0.00    -0.00  -0.01   0.00
 124  26    -0.00   0.00  -0.00     0.00  -0.00   0.00    -0.00  -0.00   0.00
 125   6    -0.00  -0.01   0.00    -0.00  -0.05   0.01     0.00   0.05  -0.01
 126   6    -0.01  -0.00   0.00    -0.08  -0.01   0.00     0.07   0.01  -0.00
 127   6    -0.00   0.00  -0.00    -0.00   0.00  -0.00     0.00  -0.00   0.00
 128   6    -0.00  -0.00   0.00    -0.00   0.00  -0.00     0.00   0.00   0.00
 129   6     0.00   0.00  -0.00    -0.00  -0.00   0.00     0.00   0.00  -0.00
 130   6     0.00  -0.00   0.00    -0.12   0.01  -0.00     0.08  -0.01   0.00
 131   6     0.00  -0.00   0.00    -0.00   0.07  -0.01     0.00  -0.05   0.01
 132   6    -0.00  -0.00   0.00     0.00   0.00  -0.00    -0.00  -0.00   0.00
 133   7    -0.00  -0.00   0.00     0.00  -0.00   0.00    -0.00   0.00  -0.00
 134   6     0.00   0.00  -0.00    -0.00   0.00  -0.00     0.00  -0.00   0.00
 135   6    -0.00   0.00  -0.00     0.00  -0.00   0.00     0.00  -0.00   0.00
 136   6     0.00   0.02  -0.00    -0.00  -0.04   0.01    -0.00  -0.04   0.00
 137   6     0.04   0.00  -0.00    -0.07  -0.01   0.00    -0.06  -0.01   0.00
 138   6     0.00  -0.00   0.00    -0.00   0.00  -0.00    -0.00   0.00  -0.00
 139   7    -0.00  -0.00   0.00     0.00   0.00  -0.00     0.00   0.00  -0.00
 140   6     0.00  -0.00   0.00    -0.00   0.00  -0.00    -0.00   0.00  -0.00
 141   6     0.00   0.00  -0.00    -0.00  -0.00   0.00    -0.00  -0.00   0.00
 142   6     0.08  -0.01   0.00    -0.11   0.01  -0.00    -0.07   0.01  -0.00
 143   6     0.00  -0.05   0.01    -0.00   0.07  -0.01    -0.00   0.04  -0.01
 144   6    -0.00  -0.00   0.00     0.00   0.00  -0.00     0.00   0.00  -0.00
 145   7    -0.00   0.00  -0.00     0.00  -0.00   0.00     0.00  -0.00   0.00
 146   6     0.00  -0.00   0.00    -0.00   0.00  -0.00     0.00   0.00  -0.00
 147   6     0.00   0.00  -0.00     0.00  -0.00   0.00    -0.00   0.00  -0.00
 148   7     0.00   0.00  -0.00     0.00   0.00  -0.00    -0.00  -0.00   0.00
 149   1     0.00   0.03  -0.00     0.01   0.16  -0.02    -0.01  -0.15   0.02
 150   1     0.04   0.01  -0.00     0.28   0.04  -0.00    -0.24  -0.04   0.00
 151   1    -0.01   0.00  -0.00     0.40  -0.06   0.01    -0.25   0.04  -0.00
 152   1    -0.00   0.00  -0.00     0.01  -0.23   0.03    -0.01   0.15  -0.02
 153   1     0.00  -0.00   0.00    -0.00  -0.00   0.00     0.00   0.01  -0.00
 154   1    -0.00  -0.07   0.01     0.01   0.13  -0.02     0.01   0.12  -0.01
 155   1    -0.13  -0.02   0.00     0.23   0.03  -0.00     0.20   0.03  -0.00
 156   1    -0.26   0.04  -0.00     0.37  -0.06   0.01     0.23  -0.03   0.00
 157   1    -0.01   0.15  -0.02     0.01  -0.22   0.03     0.01  -0.14   0.02
 158   1     0.00   0.00  -0.00    -0.00  -0.00   0.00     0.00  -0.01   0.00
 159  26     0.00   0.00  -0.00    -0.00  -0.00   0.00     0.00   0.00  -0.00
 160   6    -0.00  -0.06   0.01     0.00   0.04  -0.00     0.00   0.04  -0.00
 161   6    -0.09  -0.01   0.00     0.06   0.01  -0.00     0.06   0.01  -0.00
 162   6    -0.00   0.00  -0.00     0.00  -0.00   0.00     0.00  -0.00   0.00
 163   6    -0.00  -0.00   0.00     0.00   0.00  -0.00     0.00   0.00  -0.00
 164   6    -0.00  -0.00   0.00     0.00   0.00  -0.00     0.00   0.00  -0.00
 165   6    -0.06   0.01  -0.00     0.03  -0.00   0.00     0.06  -0.01   0.00
 166   6    -0.00   0.03  -0.00     0.00  -0.02   0.00     0.00  -0.04   0.00
 167   6     0.00   0.00  -0.00    -0.00  -0.00   0.00    -0.00  -0.00   0.00
 168   7     0.00  -0.00   0.00    -0.00   0.00  -0.00    -0.00   0.00  -0.00
 169   6    -0.00  -0.00   0.00     0.00  -0.00   0.00    -0.00  -0.00   0.00
 170   6     0.00  -0.00   0.00    -0.00   0.00  -0.00     0.00  -0.00   0.00
 171   6    -0.00  -0.07   0.01     0.00   0.01  -0.00    -0.00  -0.05   0.01
 172   6    -0.11  -0.01   0.00     0.02   0.00  -0.00    -0.08  -0.01   0.00
 173   6    -0.00   0.00  -0.00     0.00  -0.00   0.00    -0.00   0.00  -0.00
 174   7     0.00   0.00  -0.00    -0.00  -0.00   0.00     0.00   0.00  -0.00
 175   6    -0.00  -0.00   0.00     0.00   0.00  -0.00    -0.00  -0.00   0.00
 176   6    -0.00  -0.00   0.00     0.00   0.00  -0.00    -0.00  -0.00   0.00
 177   6    -0.06   0.01  -0.00     0.00  -0.00   0.00    -0.06   0.01  -0.00
 178   6    -0.00   0.03  -0.00    -0.00  -0.00   0.00    -0.00   0.04  -0.00
 179   6     0.00   0.00  -0.00    -0.00  -0.00   0.00     0.00   0.00  -0.00
 180   7     0.00  -0.00   0.00    -0.00   0.00  -0.00     0.00  -0.00   0.00
 181   6    -0.00  -0.00   0.00     0.00   0.00  -0.00     0.00   0.00  -0.00
 182   6     0.00  -0.00   0.00    -0.00   0.00  -0.00    -0.00   0.00  -0.00
 183   7     0.00   0.00  -0.00    -0.00  -0.00   0.00    -0.00  -0.00   0.00
 184   1     0.01   0.18  -0.02    -0.01  -0.11   0.01    -0.01  -0.13   0.01
 185   1     0.31   0.05  -0.01    -0.19  -0.03   0.00    -0.21  -0.03   0.00
 186   1     0.19  -0.03   0.00    -0.11   0.02  -0.00    -0.20   0.03  -0.00
 187   1     0.01  -0.11   0.01    -0.00   0.06  -0.01    -0.01   0.12  -0.01
 188   1    -0.00   0.00  -0.00     0.00   0.00  -0.00    -0.00   0.01  -0.00
 189   1     0.01   0.21  -0.02    -0.00  -0.03   0.00     0.01   0.15  -0.02
 190   1     0.36   0.05  -0.00    -0.05  -0.01   0.00     0.25   0.04  -0.00
 191   1     0.18  -0.03   0.00    -0.01   0.00  -0.00     0.19  -0.03   0.00
 192   1     0.01  -0.10   0.01    -0.00   0.01  -0.00     0.01  -0.12   0.01
 193   1    -0.00   0.00  -0.00     0.00  -0.00   0.00    -0.00  -0.01   0.00
