      -----------------------------------------------------------      
     |                   =====================                   |     
     |                           x T B                           |     
     |                   =====================                   |     
     |                         S. Grimme                         |     
     |          Mulliken Center for Theoretical Chemistry        |     
     |                    University of Bonn                     |     
      -----------------------------------------------------------      

   * xtb version 6.4.1 (bd6e46d) compiled by 'conda@4901f00b25ba' on 2021-06-10

   xtb is free software: you can redistribute it and/or modify it under
   the terms of the GNU Lesser General Public License as published by
   the Free Software Foundation, either version 3 of the License, or
   (at your option) any later version.
   
   xtb is distributed in the hope that it will be useful,
   but WITHOUT ANY WARRANTY; without even the implied warranty of
   MERCHANTABILITY or FITNESS FOR A PARTICULAR PURPOSE.  See the
   GNU Lesser General Public License for more details.
   
   Cite this work as:
   * C. Bannwarth, E. Caldeweyher, S. Ehlert, A. Hansen, P. Pracht,
     J. Seibert, S. Spicher, S. Grimme, WIREs Comput. Mol. Sci., 2020, 11,
     e01493. DOI: 10.1002/wcms.1493
   
   for GFN2-xTB:
   * C. Bannwarth, S. Ehlert and S. Grimme., J. Chem. Theory Comput., 2019,
     15, 1652-1671. DOI: 10.1021/acs.jctc.8b01176
   for GFN1-xTB:
   * S. Grimme, C. Bannwarth, P. Shushkov, J. Chem. Theory Comput., 2017,
     13, 1989-2009. DOI: 10.1021/acs.jctc.7b00118
   for GFN0-xTB:
   * P. Pracht, E. Caldeweyher, S. Ehlert, S. Grimme, ChemRxiv, 2019, preprint.
     DOI: 10.26434/chemrxiv.8326202.v1
   for GFN-FF:
   * S. Spicher and S. Grimme, Angew. Chem. Int. Ed., 2020, 59, 15665-15673.
     DOI: 10.1002/anie.202004239
   
   for DFT-D4:
   * E. Caldeweyher, C. Bannwarth and S. Grimme, J. Chem. Phys., 2017,
     147, 034112. DOI: 10.1063/1.4993215
   * E. Caldeweyher, S. Ehlert, A. Hansen, H. Neugebauer, S. Spicher,
     C. Bannwarth and S. Grimme, J. Chem. Phys., 2019, 150, 154122.
     DOI: 10.1063/1.5090222
   * E. Caldeweyher, J.-M. Mewes, S. Ehlert and S. Grimme, Phys. Chem. Chem. Phys.
     2020, 22, 8499-8512. DOI: 10.1039/D0CP00502A
   
   for sTDA-xTB:
   * S. Grimme and C. Bannwarth, J. Chem. Phys., 2016, 145, 054103.
     DOI: 10.1063/1.4959605
   
   in the mass-spec context:
   * V. Asgeirsson, C. Bauer and S. Grimme, Chem. Sci., 2017, 8, 4879.
     DOI: 10.1039/c7sc00601b
   * J. Koopman and S. Grimme, ACS Omega 2019, 4, 12, 15120-15133.
     DOI: 10.1021/acsomega.9b02011
   
   for metadynamics refer to:
   * S. Grimme, J. Chem. Theory Comput., 2019, 155, 2847-2862
     DOI: 10.1021/acs.jctc.9b00143
   
   for SPH calculations refer to:
   * S. Spicher and S. Grimme, J. Chem. Theory Comput., 2021, 17, 1701-1714
     DOI: 10.1021/acs.jctc.0c01306
   
   with help from (in alphabetical order)
   P. Atkinson, C. Bannwarth, F. Bohle, G. Brandenburg, E. Caldeweyher
   M. Checinski, S. Dohm, S. Ehlert, S. Ehrlich, I. Gerasimov, J. Koopman
   C. Lavigne, S. Lehtola, F. März, M. Müller, F. Musil, H. Neugebauer
   J. Pisarek, C. Plett, P. Pracht, J. Seibert, P. Shushkov, S. Spicher
   M. Stahn, M. Steiner, T. Strunk, J. Stückrath, T. Rose, and J. Unsleber
   
 * started run on 2021/11/19 at 17:13:33.131     

           -------------------------------------------------
          |                Calculation Setup                |
           -------------------------------------------------

          program call               : /home/jeff/miniconda3/bin/xtb input_structure_1.xyz --gfn 2 --ohess normal --parallel 1 --etemp 300 --chrg 0 --uhf 0 -I det_control.in
          hostname                   : jelfscompute1
          coordinate file            : input_structure_1.xyz
          omp threads                :                     1
          number of atoms            :                   193
          number of electrons        :                   656
          charge                     :                     0
          spin                       :                   0.0
          first test random number   :      0.07809837576846

   ID    Z sym.   atoms
    1   26 Fe     1, 37, 89, 124, 159
    2    6 C      2-9, 11-15, 17-21, 23, 24, 38-45, 47-51, 53-57, 59, 60,
                  73-88, 90-97, 99-103, 105-109, 111, 112, 125-132, 134-138,
                  140-144, 146, 147, 160-167, 169-173, 175-179, 181, 182
    3    7 N      10, 16, 22, 25, 46, 52, 58, 61, 98, 104, 110, 113, 133,
                  139, 145, 148, 168, 174, 180, 183
    4    1 H      26-36, 62-72, 114-123, 149-158, 184-193

molecular fragmentation (1/2 indicates fragments):
111111111111111111111111111111111111222222222222222222222222222222222222
222222222222222222222222222222222222222222222222222222222222222222222222
2222222222222222222222222222222222222222222222222
# atoms in fragment 1/2:    36   157
 fragment masses (1/2) :      363.17     1641.84
CMA distance (Bohr)    :  65.319
constraining FC (au)   :  0.0500

           -------------------------------------------------
          |                 G F N 2 - x T B                 |
           -------------------------------------------------

        Reference                      10.1021/acs.jctc.8b01176
      * Hamiltonian:
        H0-scaling (s, p, d)           1.850000    2.230000    2.230000
        zeta-weighting                 0.500000
      * Dispersion:
        s8                             2.700000
        a1                             0.520000
        a2                             5.000000
        s9                             5.000000
      * Repulsion:
        kExp                           1.500000    1.000000
        rExp                           1.000000
      * Coulomb:
        alpha                          2.000000
        third order                    shell-resolved
        anisotropic                    true
        a3                             3.000000
        a5                             4.000000
        cn-shift                       1.200000
        cn-exp                         4.000000
        max-rad                        5.000000


          ...................................................
          :                      SETUP                      :
          :.................................................:
          :  # basis functions                 646          :
          :  # atomic orbitals                 641          :
          :  # shells                          339          :
          :  # electrons                       656          :
          :  max. iterations                   250          :
          :  Hamiltonian                  GFN2-xTB          :
          :  restarted?                      false          :
          :  GBSA solvation                  false          :
          :  PC potential                    false          :
          :  electronic temp.          300.0000000     K    :
          :  accuracy                    1.0000000          :
          :  -> integral cutoff          0.2500000E+02      :
          :  -> integral neglect         0.1000000E-07      :
          :  -> SCF convergence          0.1000000E-05 Eh   :
          :  -> wf. convergence          0.1000000E-03 e    :
          :  Broyden damping             0.4000000          :
          ...................................................

 iter      E             dE          RMSdq      gap      omega  full diag
   1   -349.5918949 -0.349592E+03  0.855E+00    0.17       0.0  T
   2   -327.5628134  0.220291E+02  0.119E+01    0.10       1.0  T
   3   -328.7669480 -0.120413E+01  0.831E+00    0.04       1.0  T
   4   -279.3220908  0.494449E+02  0.940E+00    0.01       1.0  T
   5   -290.5269502 -0.112049E+02  0.964E+00    0.01       1.0  T
   6   -322.1346977 -0.316077E+02  0.865E+00    0.07       1.0  T
   7   -348.0686155 -0.259339E+02  0.567E+00    0.02       1.0  T
   8   -346.9431144  0.112550E+01  0.479E+00    0.04       1.0  T
   9   -323.6499620  0.232932E+02  0.700E+00    0.08       1.0  T
  10   -319.4537240  0.419624E+01  0.664E+00    0.08       1.0  T
  11   -348.8186611 -0.293649E+02  0.492E+00    0.02       1.0  T
  12   -343.9002204  0.491844E+01  0.610E+00    0.01       1.0  T
  13   -341.6340399  0.226618E+01  0.626E+00    0.11       1.0  T
  14   -344.8460442 -0.321200E+01  0.560E+00    0.01       1.0  T
  15   -339.7944945  0.505155E+01  0.594E+00    0.10       1.0  T
  16   -349.1098050 -0.931531E+01  0.435E+00    0.00       1.0  T
  17   -347.4039322  0.170587E+01  0.464E+00    0.01       1.0  T
  18   -345.1795040  0.222443E+01  0.584E+00    0.03       1.0  T
  19   -345.0452046  0.134299E+00  0.603E+00    0.02       1.0  T
  20   -344.1723091  0.872895E+00  0.623E+00    0.03       1.0  T
  21   -343.2843227  0.887986E+00  0.600E+00    0.01       1.0  T
  22   -339.0493605  0.423496E+01  0.663E+00    0.04       1.0  T
  23   -345.2848188 -0.623546E+01  0.618E+00    0.05       1.0  T
  24   -344.0001219  0.128470E+01  0.636E+00    0.04       1.0  T
  25   -344.5026294 -0.502507E+00  0.644E+00    0.04       1.0  T
  26   -344.9620530 -0.459424E+00  0.644E+00    0.05       1.0  T
  27   -344.9659297 -0.387670E-02  0.645E+00    0.05       1.0  T
  28   -346.5361013 -0.157017E+01  0.630E+00    0.02       1.0  T
  29   -342.6430806  0.389302E+01  0.634E+00    0.02       1.0  T
  30   -343.1781196 -0.535039E+00  0.653E+00    0.01       1.0  T
  31   -338.1773569  0.500076E+01  0.731E+00    0.06       1.0  T
  32   -336.5436955  0.163366E+01  0.774E+00    0.21       1.0  T
  33   -334.8233504  0.172035E+01  0.802E+00    0.00       1.0  T
  34   -332.3325285  0.249082E+01  0.843E+00    0.09       1.0  T
  35   -332.4843459 -0.151817E+00  0.838E+00    0.09       1.0  T
  36   -332.5041903 -0.198444E-01  0.837E+00    0.09       1.0  T
  37   -332.8635763 -0.359386E+00  0.823E+00    0.09       1.0  T
  38   -333.8891958 -0.102562E+01  0.790E+00    0.06       1.0  T
  39   -333.9563370 -0.671412E-01  0.786E+00    0.04       1.0  T
  40   -333.9598875 -0.355052E-02  0.786E+00    0.04       1.0  T
  41   -332.0025223  0.195737E+01  0.811E+00    0.02       1.0  T
  42   -332.0053422 -0.281989E-02  0.831E+00    0.03       1.0  T
  43   -336.4081367 -0.440279E+01  0.827E+00    0.02       1.0  T
  44   -341.7637285 -0.535559E+01  0.780E+00    0.01       1.0  T
  45   -342.1725626 -0.408834E+00  0.739E+00    0.01       1.0  T
  46   -344.0545731 -0.188201E+01  0.686E+00    0.05       1.0  T
  47   -342.7580164  0.129656E+01  0.720E+00    0.01       1.0  T
  48   -344.7628736 -0.200486E+01  0.703E+00    0.00       1.0  T
  49   -345.2763031 -0.513430E+00  0.678E+00    0.04       1.0  T
  50   -346.4148640 -0.113856E+01  0.670E+00    0.01       1.0  T
  51   -346.2366697  0.178194E+00  0.666E+00    0.04       1.0  T
  52   -346.0135253  0.223144E+00  0.673E+00    0.06       1.0  T
  53   -345.6688755  0.344650E+00  0.662E+00    0.02       1.0  T
  54   -345.6078019  0.610736E-01  0.641E+00    0.03       1.0  T
  55   -348.8100848 -0.320228E+01  0.464E+00    0.02       1.0  T
  56   -348.7426383  0.674465E-01  0.467E+00    0.04       1.0  T
  57   -348.5835258  0.159113E+00  0.473E+00    0.05       1.0  T
  58   -348.6987789 -0.115253E+00  0.468E+00    0.04       1.0  T
  59   -348.6891742  0.960466E-02  0.468E+00    0.05       1.0  T
  60   -348.1759154  0.513259E+00  0.481E+00    0.01       1.0  T
  61   -346.8795368  0.129638E+01  0.573E+00    0.03       1.0  T
  62   -348.1008637 -0.122133E+01  0.551E+00    0.04       1.0  T
  63   -351.0677899 -0.296693E+01  0.410E+00    0.01       1.0  T
  64   -349.8761718  0.119162E+01  0.526E+00    0.03       1.0  T
  65   -350.2842216 -0.408050E+00  0.456E+00    0.01       1.0  T
  66   -350.2157318  0.684898E-01  0.466E+00    0.02       1.0  T
  67   -349.8375956  0.378136E+00  0.485E+00    0.01       1.0  T
  68   -352.7309758 -0.289338E+01  0.435E+00    0.02       1.0  T
  69   -350.8423249  0.188865E+01  0.470E+00    0.02       1.0  T
  70   -351.0964155 -0.254091E+00  0.469E+00    0.01       1.0  T
  71   -347.9429773  0.315344E+01  0.512E+00    0.00       1.0  T
  72   -352.5861226 -0.464315E+01  0.396E+00    0.02       1.0  T
  73   -351.1557098  0.143041E+01  0.458E+00    0.02       1.0  T
  74   -352.8104809 -0.165477E+01  0.389E+00    0.00       1.0  T
  75   -352.2806649  0.529816E+00  0.379E+00    0.00       1.0  T
  76   -347.2333514  0.504731E+01  0.518E+00    0.01       1.0  T
  77   -347.6531751 -0.419824E+00  0.499E+00    0.01       1.0  T
  78   -348.0673675 -0.414192E+00  0.473E+00    0.00       1.0  T
  79   -350.9159371 -0.284857E+01  0.473E+00    0.01       1.0  T
  80   -352.7565035 -0.184057E+01  0.393E+00    0.03       1.0  T
  81   -352.0893836  0.667120E+00  0.446E+00    0.05       1.0  T
  82   -352.2900351 -0.200651E+00  0.455E+00    0.01       1.0  T
  83   -351.9370453  0.352990E+00  0.482E+00    0.02       1.0  T
  84   -352.0025924 -0.655471E-01  0.475E+00    0.01       1.0  T
  85   -351.9892196  0.133727E-01  0.480E+00    0.00       1.0  T
  86   -351.9986275 -0.940790E-02  0.477E+00    0.02       1.0  T
  87   -351.8013016  0.197326E+00  0.495E+00    0.01       1.0  T
  88   -351.7743432  0.269584E-01  0.505E+00    0.01       1.0  T
  89   -351.6618865  0.112457E+00  0.518E+00    0.00       1.0  T
  90   -351.4363688  0.225518E+00  0.553E+00    0.01       1.0  T
  91   -351.3873700  0.489988E-01  0.556E+00    0.01       1.0  T
  92   -351.3182626  0.691075E-01  0.559E+00    0.01       1.0  T
  93   -351.4427297 -0.124467E+00  0.552E+00    0.02       1.0  T
  94   -351.6714062 -0.228677E+00  0.546E+00    0.01       1.0  T
  95   -352.1314771 -0.460071E+00  0.493E+00    0.00       1.0  T
  96   -351.7017692  0.429708E+00  0.505E+00    0.00       1.0  T
  97   -352.8189849 -0.111722E+01  0.442E+00    0.02       1.0  T
  98   -352.9032052 -0.842203E-01  0.419E+00    0.02       1.0  T
  99   -352.8858716  0.173335E-01  0.419E+00    0.01       1.0  T
 100   -352.9044197 -0.185481E-01  0.415E+00    0.01       1.0  T
 101   -353.0245309 -0.120111E+00  0.412E+00    0.00       1.0  T
 102   -352.9248986  0.996324E-01  0.418E+00    0.00       1.0  T
 103   -352.8134337  0.111465E+00  0.434E+00    0.00       1.0  T
 104   -352.8325972 -0.191635E-01  0.427E+00    0.00       1.0  T
 105   -352.6546090  0.177988E+00  0.410E+00    0.00       1.0  T
 106   -352.3221217  0.332487E+00  0.414E+00    0.01       1.0  T
 107   -352.1959567  0.126165E+00  0.395E+00    0.02       1.0  T
 108   -351.4737467  0.722210E+00  0.410E+00    0.00       1.0  T
 109   -351.7113646 -0.237618E+00  0.365E+00    0.01       1.0  T
 110   -351.2372704  0.474094E+00  0.402E+00    0.01       1.0  T
 111   -352.0707588 -0.833488E+00  0.329E+00    0.01       1.0  T
 112   -351.8871494  0.183609E+00  0.369E+00    0.03       1.0  T
 113   -351.5941144  0.293035E+00  0.374E+00    0.02       1.0  T
 114   -351.7584925 -0.164378E+00  0.382E+00    0.04       1.0  T
 115   -351.8357381 -0.772456E-01  0.373E+00    0.00       1.0  T
 116   -352.0607789 -0.225041E+00  0.356E+00    0.02       1.0  T
 117   -350.8675403  0.119324E+01  0.404E+00    0.03       1.0  T
 118   -350.1934998  0.674041E+00  0.418E+00    0.00       1.0  T
 119   -351.4773113 -0.128381E+01  0.323E+00    0.01       1.0  T
 120   -351.4968109 -0.194996E-01  0.313E+00    0.00       1.0  T
 121   -351.6868410 -0.190030E+00  0.306E+00    0.02       1.0  T
 122   -351.9169982 -0.230157E+00  0.288E+00    0.01       1.0  T
 123   -352.0782865 -0.161288E+00  0.295E+00    0.00       1.0  T
 124   -352.5332221 -0.454936E+00  0.259E+00    0.00       1.0  T
 125   -352.6501075 -0.116885E+00  0.232E+00    0.01       1.0  T
 126   -353.2759257 -0.625818E+00  0.176E+00    0.01       1.0  T
 127   -353.8876365 -0.611711E+00  0.985E-01    0.00       1.0  T
 128   -354.0283603 -0.140724E+00  0.630E-01    0.00       1.0  T
 129   -354.0342434 -0.588310E-02  0.584E-01    0.00       1.0  T
 130   -353.6919450  0.342298E+00  0.138E+00    0.00       1.0  T
 131   -353.8585424 -0.166597E+00  0.100E+00    0.01       1.0  T
 132   -353.9283577 -0.698153E-01  0.805E-01    0.01       1.0  T
 133   -353.9452776 -0.169199E-01  0.751E-01    0.01       1.0  T
 134   -354.0662980 -0.121020E+00  0.412E-01    0.00       1.0  T
 135   -353.9866658  0.796323E-01  0.703E-01    0.00       1.0  T
 136   -353.9316203  0.550454E-01  0.844E-01    0.00       1.0  T
 137   -354.0311002 -0.994799E-01  0.539E-01    0.00       1.0  T
 138   -354.1011308 -0.700306E-01  0.163E-01    0.00       1.0  T
 139   -354.0863112  0.148196E-01  0.269E-01    0.00       1.0  T
 140   -354.1006389 -0.143277E-01  0.159E-01    0.00       1.0  T
 141   -354.0605031  0.401358E-01  0.426E-01    0.00       1.0  T
 142   -354.0757081 -0.152050E-01  0.343E-01    0.00       1.0  T
 143   -354.0834901 -0.778196E-02  0.292E-01    0.00       1.0  T
 144   -354.0853929 -0.190278E-02  0.262E-01    0.01       1.0  T
 145   -354.1000644 -0.146715E-01  0.138E-01    0.00       1.0  T
 146   -354.0961502  0.391414E-02  0.168E-01    0.00       1.0  T
 147   -354.0979059 -0.175566E-02  0.157E-01    0.00       1.0  T
 148   -354.0928241  0.508183E-02  0.206E-01    0.01       1.0  T
 149   -354.0931573 -0.333254E-03  0.206E-01    0.00       1.0  T
 150   -354.1021706 -0.901329E-02  0.877E-02    0.00       1.0  T
 151   -354.1016064  0.564247E-03  0.928E-02    0.00       1.0  T
 152   -354.1033696 -0.176324E-02  0.505E-02    0.00       1.0  T
 153   -354.1025515  0.818150E-03  0.690E-02    0.00       1.0  T
 154   -354.1028599 -0.308423E-03  0.606E-02    0.00       1.0  T
 155   -354.1029541 -0.941661E-04  0.585E-02    0.00       1.0  T
 156   -354.1033458 -0.391792E-03  0.437E-02    0.00       1.0  T
 157   -354.1036955 -0.349648E-03  0.278E-02    0.00       1.0  T
 158   -354.1037361 -0.405900E-04  0.228E-02    0.00       1.0  T
 159   -354.1037750 -0.389024E-04  0.178E-02    0.00       1.0  T
 160   -354.1037945 -0.195142E-04  0.143E-02    0.00       1.0  T
 161   -354.1038216 -0.271396E-04  0.107E-02    0.00       1.0  T
 162   -354.1038399 -0.182512E-04  0.744E-03    0.00       1.0  T
 163   -354.1038419 -0.195866E-05  0.582E-03    0.00       1.2  T
 164   -354.1038414  0.473614E-06  0.532E-03    0.00       1.4  T
 165   -354.1038410  0.363338E-06  0.413E-03    0.00       1.7  T
 166   -354.1038389  0.207516E-05  0.460E-03    0.00       1.6  T
 167   -354.1038413 -0.238601E-05  0.341E-03    0.00       2.1  T
 168   -354.1038422 -0.895651E-06  0.271E-03    0.00       2.7  T
 169   -354.1038430 -0.747977E-06  0.203E-03    0.00       3.5  T
 170   -354.1038438 -0.836309E-06  0.106E-03    0.00       6.8  T
 171   -354.1038439 -0.557416E-07  0.977E-04    0.00       7.4  T
 172   -354.1038439  0.787230E-08  0.952E-04    0.00       7.6  T

   *** convergence criteria satisfied after 172 iterations ***

         #    Occupation            Energy/Eh            Energy/eV
      -------------------------------------------------------------
         1        2.0000           -0.6808401             -18.5266
       ...           ...                  ...                  ...
       322        1.8775           -0.3377116              -9.1896
       323        1.8773           -0.3377104              -9.1896
       324        1.4721           -0.3360930              -9.1456
       325        1.4603           -0.3360644              -9.1448
       326        1.1243           -0.3353561              -9.1255
       327        1.0826           -0.3352760              -9.1233
       328        1.0233           -0.3351630              -9.1202 (HOMO)
       329        0.9590           -0.3350408              -9.1169 (LUMO)
       330        0.9500           -0.3350237              -9.1165
       331        0.9084           -0.3349441              -9.1143
       332        0.8613           -0.3348535              -9.1118
       333        0.8032           -0.3347399              -9.1087
       ...           ...                  ...                  ...
       641                          1.6188570              44.0513
      -------------------------------------------------------------
                  HL-Gap            0.0001222 Eh            0.0033 eV
             Fermi-level           -0.3351187 Eh           -9.1190 eV

 SCC (total)                   0 d,  0 h,  0 min, 19.041 sec
 SCC setup                      ...        0 min,  0.007 sec (  0.036%)
 Dispersion                     ...        0 min,  0.015 sec (  0.077%)
 classical contributions        ...        0 min,  0.001 sec (  0.008%)
 integral evaluation            ...        0 min,  0.119 sec (  0.625%)
 iterations                     ...        0 min, 18.563 sec ( 97.493%)
 molecular gradient             ...        0 min,  0.322 sec (  1.691%)
 printout                       ...        0 min,  0.013 sec (  0.070%)

         :::::::::::::::::::::::::::::::::::::::::::::::::::::
         ::                     SUMMARY                     ::
         :::::::::::::::::::::::::::::::::::::::::::::::::::::
         :: total energy            -347.674837502324 Eh    ::
         :: gradient norm              0.837743159105 Eh/a0 ::
         :: HOMO-LUMO gap              0.003324704246 eV    ::
         ::.................................................::
         :: SCC energy              -354.103843852228 Eh    ::
         :: -> isotropic ES            0.017503078045 Eh    ::
         :: -> anisotropic ES          0.046193118369 Eh    ::
         :: -> anisotropic XC          0.233855551999 Eh    ::
         :: -> dispersion             -0.262859317662 Eh    ::
         :: repulsion energy           6.428592786854 Eh    ::
         :: add. restraining           0.000000000000 Eh    ::
         :: total charge               0.000000000213 e     ::
         :::::::::::::::::::::::::::::::::::::::::::::::::::::

      ----------------------------------------------------------- 
     |                   =====================                   |
     |                        A N C O P T                        |
     |                   =====================                   |
     |               Approximate Normal Coordinate               |
     |                Rational Function Optimizer                |
      ----------------------------------------------------------- 

          ...................................................
          :                      SETUP                      :
          :.................................................:
          :   optimization level            normal          :
          :   max. optcycles                   579          :
          :   ANC micro-cycles                  20          :
          :   degrees of freedom               573          :
          :.................................................:
          :   RF solver                   davidson          :
          :   write xtbopt.log                true          :
          :   linear?                        false          :
          :   energy convergence         0.5000000E-05 Eh   :
          :   grad. convergence          0.1000000E-02 Eh/α :
          :   maximium RF displ.         1.0000000          :
          :   Hlow (freq-cutoff)         0.1000000E-01      :
          :   Hmax (freq-cutoff)         5.0000000          :
          :   S6 in model hess.         20.0000000          :
          ...................................................

generating ANC from model Hessian ...
Using Lindh-Hessian (1995)
 Shifting diagonal of input Hessian by    1.0124415709642346E-002
 Lowest  eigenvalues of input Hessian
    0.010000    0.010039    0.010094    0.010097    0.010097    0.010099
    0.010106    0.010109    0.010110    0.010112    0.010117    0.010117
    0.010118    0.010122    0.000000    0.000000    0.000000    0.000000
 Highest eigenvalues
    2.576439    2.576440    2.785519    2.844620    2.909723    2.909725


........................................................................
.............................. CYCLE    1 ..............................
........................................................................
   1   -354.1038438 -0.354104E+03  0.993E-04    0.00       0.0  T
   2   -354.0981381  0.570568E-02  0.135E-01    0.00       1.0  T
   3   -354.1037971 -0.565902E-02  0.121E-02    0.00       1.0  T
   4   -354.1015285  0.226857E-02  0.869E-02    0.00       1.0  T
   5   -354.1033494 -0.182092E-02  0.372E-02    0.00       1.0  T
   6   -354.1033506 -0.117222E-05  0.398E-02    0.00       1.0  T
   7   -354.1033639 -0.132852E-04  0.379E-02    0.00       1.0  T
   8   -354.1032482  0.115704E-03  0.436E-02    0.00       1.0  T
   9   -354.1034122 -0.163954E-03  0.366E-02    0.00       1.0  T
  10   -354.1037944 -0.382202E-03  0.114E-02    0.00       1.0  T
  11   -354.1037716  0.227162E-04  0.149E-02    0.00       1.0  T
  12   -354.1038282 -0.565165E-04  0.722E-03    0.00       1.0  T
  13   -354.1038424 -0.142942E-04  0.248E-03    0.00       2.9  T
  14   -354.1038420  0.420631E-06  0.252E-03    0.00       2.9  T
  15   -354.1038439 -0.188478E-05  0.593E-04    0.00      12.1  T
  16   -354.1038438  0.861780E-07  0.752E-04    0.00       9.6  T
  17   -354.1038440 -0.144898E-06  0.352E-04    0.00      20.4  T
     SCC iter.                  ...        0 min,  1.823 sec
     gradient                   ...        0 min,  0.320 sec
 * total energy  :  -347.6748376 Eh     change       -0.1198658E-06 Eh
   gradient norm :     0.8377434 Eh/α   predicted     0.0000000E+00 (-100.00%)
   displ. norm   :     0.5531383 α      lambda       -0.3827766E+00
   maximum displ.:     0.1580946 α      in ANC's #198, #559, #197, ...

........................................................................
.............................. CYCLE    2 ..............................
........................................................................
   1   -354.0526568 -0.354053E+03  0.631E-01    0.00       0.0  T
   2   -348.1859932  0.586666E+01  0.360E+00    0.02       1.0  T
   3   -347.1959033  0.990090E+00  0.448E+00    0.00       1.0  T
   4   -347.4199921 -0.224089E+00  0.531E+00    0.03       1.0  T
   5   -345.6708148  0.174918E+01  0.546E+00    0.02       1.0  T
   6   -347.4388047 -0.176799E+01  0.483E+00    0.02       1.0  T
   7   -347.4793803 -0.405756E-01  0.519E+00    0.01       1.0  T
   8   -348.7443659 -0.126499E+01  0.431E+00    0.03       1.0  T
   9   -349.4466215 -0.702256E+00  0.419E+00    0.04       1.0  T
  10   -348.8688217  0.577800E+00  0.430E+00    0.00       1.0  T
  11   -349.7818466 -0.913025E+00  0.390E+00    0.01       1.0  T
  12   -350.2731977 -0.491351E+00  0.367E+00    0.01       1.0  T
  13   -350.2783259 -0.512817E-02  0.367E+00    0.01       1.0  T
  14   -349.6760135  0.602312E+00  0.401E+00    0.03       1.0  T
  15   -349.8035243 -0.127511E+00  0.393E+00    0.02       1.0  T
  16   -346.3581857  0.344534E+01  0.517E+00    0.02       1.0  T
  17   -352.0249503 -0.566676E+01  0.295E+00    0.04       1.0  T
  18   -352.0853907 -0.604403E-01  0.295E+00    0.02       1.0  T
  19   -352.3467670 -0.261376E+00  0.266E+00    0.00       1.0  T
  20   -352.7982785 -0.451512E+00  0.227E+00    0.01       1.0  T
  21   -354.0376582 -0.123938E+01  0.737E-01    0.00       1.0  T
  22   -353.8700583  0.167600E+00  0.985E-01    0.01       1.0  T
  23   -353.5714894  0.298569E+00  0.134E+00    0.00       1.0  T
  24   -353.3198680  0.251621E+00  0.171E+00    0.01       1.0  T
  25   -353.9549858 -0.635118E+00  0.881E-01    0.01       1.0  T
  26   -353.8364522  0.118534E+00  0.109E+00    0.00       1.0  T
  27   -353.8488265 -0.123744E-01  0.139E+00    0.01       1.0  T
  28   -352.5884428  0.126038E+01  0.279E+00    0.00       1.0  T
  29   -353.0673175 -0.478875E+00  0.242E+00    0.01       1.0  T
  30   -353.3787699 -0.311452E+00  0.202E+00    0.00       1.0  T
  31   -353.4112863 -0.325164E-01  0.191E+00    0.00       1.0  T
  32   -353.6063594 -0.195073E+00  0.158E+00    0.01       1.0  T
  33   -353.9135708 -0.307211E+00  0.105E+00    0.00       1.0  T
  34   -354.0143371 -0.100766E+00  0.764E-01    0.00       1.0  T
  35   -353.8456515  0.168686E+00  0.108E+00    0.00       1.0  T
  36   -353.9872845 -0.141633E+00  0.755E-01    0.00       1.0  T
  37   -354.0766599 -0.893755E-01  0.382E-01    0.00       1.0  T
  38   -354.0346668  0.419931E-01  0.525E-01    0.00       1.0  T
  39   -354.0740516 -0.393848E-01  0.288E-01    0.00       1.0  T
  40   -354.0884703 -0.144187E-01  0.119E-01    0.00       1.0  T
  41   -354.0872566  0.121371E-02  0.119E-01    0.00       1.0  T
  42   -354.0889293 -0.167274E-02  0.805E-02    0.00       1.0  T
  43   -354.0893687 -0.439376E-03  0.622E-02    0.00       1.0  T
  44   -354.0889204  0.448315E-03  0.731E-02    0.00       1.0  T
  45   -354.0897765 -0.856086E-03  0.490E-02    0.00       1.0  T
  46   -354.0899146 -0.138131E-03  0.430E-02    0.00       1.0  T
  47   -354.0903300 -0.415420E-03  0.150E-02    0.00       1.0  T
  48   -354.0902723  0.576849E-04  0.203E-02    0.00       1.0  T
  49   -354.0903582 -0.858752E-04  0.106E-02    0.00       1.0  T
  50   -354.0903749 -0.166596E-04  0.582E-03    0.00       1.2  T
  51   -354.0903598  0.151015E-04  0.101E-02    0.00       1.0  T
  52   -354.0903608 -0.109626E-05  0.965E-03    0.00       1.0  T
  53   -354.0903760 -0.151619E-04  0.523E-03    0.00       1.4  T
  54   -354.0903796 -0.356297E-05  0.380E-03    0.00       1.9  T
  55   -354.0903807 -0.112898E-05  0.290E-03    0.00       2.5  T
  56   -354.0903815 -0.839565E-06  0.170E-03    0.00       4.2  T
  57   -354.0903819 -0.317652E-06  0.115E-03    0.00       6.3  T
  58   -354.0903821 -0.235192E-06  0.516E-04    0.00      13.9  T
  59   -354.0903820  0.920951E-07  0.744E-04    0.00       9.7  T
     SCC iter.                  ...        0 min,  6.323 sec
     gradient                   ...        0 min,  0.320 sec
 * total energy  :  -347.9751278 Eh     change       -0.3002901E+00 Eh
   gradient norm :     0.4615651 Eh/α   predicted    -0.2499855E+00 ( -16.75%)
   displ. norm   :     0.6317235 α      lambda       -0.2349776E+00
   maximum displ.:     0.2192567 α      in ANC's #198, #197, #196, ...

........................................................................
.............................. CYCLE    3 ..............................
........................................................................
   1   -354.0906479 -0.354091E+03  0.120E+00    0.02       0.0  T
   2   -344.1566068  0.993404E+01  0.485E+00    0.04       1.0  T
   3   -344.7490676 -0.592461E+00  0.553E+00    0.01       1.0  T
   4   -340.9302731  0.381879E+01  0.732E+00    0.24       1.0  T
   5   -341.7094282 -0.779155E+00  0.678E+00    0.05       1.0  T
   6   -350.3024614 -0.859303E+01  0.373E+00    0.03       1.0  T
   7   -345.0332176  0.526924E+01  0.557E+00    0.02       1.0  T
   8   -347.5354258 -0.250221E+01  0.492E+00    0.03       1.0  T
   9   -348.8601371 -0.132471E+01  0.461E+00    0.00       1.0  T
  10   -349.6076180 -0.747481E+00  0.421E+00    0.02       1.0  T
  11   -346.6107287  0.299689E+01  0.514E+00    0.02       1.0  T
  12   -349.3751468 -0.276442E+01  0.434E+00    0.01       1.0  T
  13   -348.3448725  0.103027E+01  0.465E+00    0.04       1.0  T
  14   -347.6842735  0.660599E+00  0.486E+00    0.01       1.0  T
  15   -345.6771789  0.200709E+01  0.523E+00    0.06       1.0  T
  16   -351.9654973 -0.628832E+01  0.281E+00    0.06       1.0  T
  17   -352.0265468 -0.610496E-01  0.275E+00    0.01       1.0  T
  18   -351.5443073  0.482240E+00  0.289E+00    0.01       1.0  T
  19   -351.8406621 -0.296355E+00  0.286E+00    0.00       1.0  T
  20   -352.4599015 -0.619239E+00  0.237E+00    0.00       1.0  T
  21   -352.4287602  0.311414E-01  0.247E+00    0.02       1.0  T
  22   -352.4627423 -0.339821E-01  0.242E+00    0.00       1.0  T
  23   -351.2296568  0.123309E+01  0.312E+00    0.00       1.0  T
  24   -351.6592579 -0.429601E+00  0.290E+00    0.00       1.0  T
  25   -353.4008794 -0.174162E+01  0.171E+00    0.00       1.0  T
  26   -353.0107267  0.390153E+00  0.210E+00    0.01       1.0  T
  27   -353.5717576 -0.561031E+00  0.149E+00    0.01       1.0  T
  28   -353.7840022 -0.212245E+00  0.115E+00    0.01       1.0  T
  29   -353.9425418 -0.158540E+00  0.107E+00    0.00       1.0  T
  30   -353.4875491  0.454993E+00  0.155E+00    0.01       1.0  T
  31   -353.4962536 -0.870447E-02  0.150E+00    0.01       1.0  T
  32   -353.6397790 -0.143525E+00  0.138E+00    0.02       1.0  T
  33   -353.3969733  0.242806E+00  0.163E+00    0.02       1.0  T
  34   -353.4654701 -0.684968E-01  0.153E+00    0.01       1.0  T
  35   -353.5564862 -0.910161E-01  0.149E+00    0.00       1.0  T
  36   -353.7944229 -0.237937E+00  0.117E+00    0.00       1.0  T
  37   -354.0806658 -0.286243E+00  0.486E-01    0.00       1.0  T
  38   -353.8858828  0.194783E+00  0.972E-01    0.01       1.0  T
  39   -354.0639435 -0.178061E+00  0.544E-01    0.00       1.0  T
  40   -354.1045247 -0.405812E-01  0.393E-01    0.00       1.0  T
  41   -354.1177713 -0.132466E-01  0.305E-01    0.00       1.0  T
  42   -354.1223166 -0.454533E-02  0.252E-01    0.00       1.0  T
  43   -354.1120367  0.102800E-01  0.324E-01    0.00       1.0  T
  44   -354.1341731 -0.221365E-01  0.155E-01    0.00       1.0  T
  45   -354.1300258  0.414730E-02  0.199E-01    0.00       1.0  T
  46   -354.1345787 -0.455285E-02  0.140E-01    0.00       1.0  T
  47   -354.1351423 -0.563654E-03  0.119E-01    0.00       1.0  T
  48   -354.1378813 -0.273902E-02  0.600E-02    0.00       1.0  T
  49   -354.1376898  0.191563E-03  0.706E-02    0.00       1.0  T
  50   -354.1388116 -0.112180E-02  0.267E-02    0.00       1.0  T
  51   -354.1388864 -0.747881E-04  0.203E-02    0.00       1.0  T
  52   -354.1387563  0.130045E-03  0.266E-02    0.00       1.0  T
  53   -354.1387483  0.803027E-05  0.277E-02    0.00       1.0  T
  54   -354.1388948 -0.146507E-03  0.118E-02    0.00       1.0  T
  55   -354.1389143 -0.194685E-04  0.897E-03    0.00       1.0  T
  56   -354.1389131  0.112897E-05  0.842E-03    0.00       1.0  T
  57   -354.1389185 -0.538808E-05  0.516E-03    0.00       1.4  T
  58   -354.1389171  0.139828E-05  0.566E-03    0.00       1.3  T
  59   -354.1389198 -0.268737E-05  0.379E-03    0.00       1.9  T
  60   -354.1389218 -0.201123E-05  0.241E-03    0.00       3.0  T
  61   -354.1389221 -0.258935E-06  0.160E-03    0.00       4.5  T
  62   -354.1389220  0.104298E-06  0.164E-03    0.00       4.4  T
  63   -354.1389227 -0.779301E-06  0.449E-04    0.00      16.0  T
  64   -354.1389228 -0.296787E-07  0.409E-04    0.00      17.6  T
     SCC iter.                  ...        0 min,  6.870 sec
     gradient                   ...        0 min,  0.321 sec
 * total energy  :  -348.1468627 Eh     change       -0.1717349E+00 Eh
   gradient norm :     0.1874668 Eh/α   predicted    -0.1643756E+00 (  -4.29%)
   displ. norm   :     0.7184761 α      lambda       -0.1103151E+00
   maximum displ.:     0.2769513 α      in ANC's #198, #197, #196, ...

........................................................................
.............................. CYCLE    4 ..............................
........................................................................
   1   -354.1636803 -0.354164E+03  0.187E+00    0.04       0.0  T
   2   -342.7888292  0.113749E+02  0.555E+00    0.02       1.0  T
   3   -339.2185058  0.357032E+01  0.704E+00    0.00       1.0  T
   4   -340.8156671 -0.159716E+01  0.775E+00    0.06       1.0  T
   5   -346.8554129 -0.603975E+01  0.579E+00    0.03       1.0  T
   6   -350.1599081 -0.330450E+01  0.377E+00    0.00       1.0  T
   7   -346.5507104  0.360920E+01  0.551E+00    0.06       1.0  T
   8   -349.1852867 -0.263458E+01  0.478E+00    0.07       1.0  T
   9   -351.5839186 -0.239863E+01  0.350E+00    0.02       1.0  T
  10   -352.3783961 -0.794477E+00  0.295E+00    0.01       1.0  T
  11   -351.2025726  0.117582E+01  0.349E+00    0.01       1.0  T
  12   -352.0841205 -0.881548E+00  0.301E+00    0.00       1.0  T
  13   -350.8787365  0.120538E+01  0.364E+00    0.02       1.0  T
  14   -352.6186500 -0.173991E+01  0.246E+00    0.00       1.0  T
  15   -349.0054504  0.361320E+01  0.456E+00    0.04       1.0  T
  16   -350.0486250 -0.104317E+01  0.397E+00    0.00       1.0  T
  17   -351.9285066 -0.187988E+01  0.301E+00    0.02       1.0  T
  18   -352.1644474 -0.235941E+00  0.288E+00    0.01       1.0  T
  19   -351.8525727  0.311875E+00  0.300E+00    0.02       1.0  T
  20   -353.2091844 -0.135661E+01  0.197E+00    0.00       1.0  T
  21   -351.4599872  0.174920E+01  0.290E+00    0.03       1.0  T
  22   -352.0123515 -0.552364E+00  0.264E+00    0.03       1.0  T
  23   -352.8815197 -0.869168E+00  0.217E+00    0.02       1.0  T
  24   -353.5598898 -0.678370E+00  0.158E+00    0.01       1.0  T
  25   -353.6158583 -0.559685E-01  0.152E+00    0.00       1.0  T
  26   -353.9705620 -0.354704E+00  0.105E+00    0.00       1.0  T
  27   -353.6862589  0.284303E+00  0.150E+00    0.01       1.0  T
  28   -353.9969955 -0.310737E+00  0.114E+00    0.01       1.0  T
  29   -353.7548436  0.242152E+00  0.143E+00    0.00       1.0  T
  30   -354.0797322 -0.324889E+00  0.741E-01    0.00       1.0  T
  31   -354.0436556  0.360765E-01  0.971E-01    0.01       1.0  T
  32   -354.2087755 -0.165120E+00  0.308E-01    0.01       1.0  T
  33   -354.1695679  0.392077E-01  0.505E-01    0.00       1.0  T
  34   -354.1799049 -0.103370E-01  0.408E-01    0.00       1.0  T
  35   -354.1949551 -0.150503E-01  0.349E-01    0.01       1.0  T
  36   -354.2050080 -0.100528E-01  0.325E-01    0.00       1.0  T
  37   -354.2034840  0.152394E-02  0.303E-01    0.00       1.0  T
  38   -354.2062056 -0.272158E-02  0.296E-01    0.01       1.0  T
  39   -354.2141565 -0.795093E-02  0.234E-01    0.00       1.0  T
  40   -354.2150387 -0.882109E-03  0.211E-01    0.00       1.0  T
  41   -354.2181099 -0.307121E-02  0.178E-01    0.00       1.0  T
  42   -354.2239501 -0.584022E-02  0.698E-02    0.01       1.0  T
  43   -354.2227909  0.115917E-02  0.924E-02    0.01       1.0  T
  44   -354.2236893 -0.898332E-03  0.730E-02    0.01       1.0  T
  45   -354.2239255 -0.236202E-03  0.677E-02    0.01       1.0  T
  46   -354.2246072 -0.681755E-03  0.465E-02    0.01       1.0  T
  47   -354.2249209 -0.313723E-03  0.312E-02    0.01       1.0  T
  48   -354.2250348 -0.113874E-03  0.215E-02    0.01       1.0  T
  49   -354.2251357 -0.100940E-03  0.954E-03    0.01       1.0  T
  50   -354.2251484 -0.126687E-04  0.769E-03    0.01       1.0  T
  51   -354.2251546 -0.615911E-05  0.601E-03    0.01       1.2  T
  52   -354.2251616 -0.705548E-05  0.390E-03    0.01       1.8  T
  53   -354.2251642 -0.256938E-05  0.288E-03    0.01       2.5  T
  54   -354.2251647 -0.484338E-06  0.215E-03    0.01       3.4  T
  55   -354.2251655 -0.809921E-06  0.128E-03    0.01       5.6  T
  56   -354.2251646  0.937802E-06  0.191E-03    0.01       3.8  T
  57   -354.2251655 -0.952078E-06  0.953E-04    0.01       7.6  T
  58   -354.2251657 -0.154532E-06  0.720E-04    0.01      10.0  T
     SCC iter.                  ...        0 min,  6.218 sec
     gradient                   ...        0 min,  0.319 sec
 * total energy  :  -348.2365251 Eh     change       -0.8966239E-01 Eh
   gradient norm :     0.1085843 Eh/α   predicted    -0.8363039E-01 (  -6.73%)
   displ. norm   :     0.8032637 α      lambda       -0.7916801E-01
   maximum displ.:     0.2897436 α      in ANC's #198, #106, #197, ...

........................................................................
.............................. CYCLE    5 ..............................
........................................................................
   1   -354.2242969 -0.354224E+03  0.218E+00    0.06       0.0  T
   2   -343.4334029  0.107909E+02  0.668E+00    0.07       1.0  T
   3   -343.0364429  0.396960E+00  0.639E+00    0.03       1.0  T
   4   -343.4762796 -0.439837E+00  0.664E+00    0.03       1.0  T
   5   -343.9824712 -0.506192E+00  0.590E+00    0.01       1.0  T
   6   -346.6100407 -0.262757E+01  0.556E+00    0.05       1.0  T
   7   -345.2864766  0.132356E+01  0.568E+00    0.02       1.0  T
   8   -352.0466721 -0.676020E+01  0.330E+00    0.02       1.0  T
   9   -352.4713815 -0.424709E+00  0.271E+00    0.02       1.0  T
  10   -351.1953244  0.127606E+01  0.351E+00    0.03       1.0  T
  11   -352.0002579 -0.804934E+00  0.306E+00    0.01       1.0  T
  12   -349.9361953  0.206406E+01  0.403E+00    0.01       1.0  T
  13   -352.8536249 -0.291743E+01  0.228E+00    0.01       1.0  T
  14   -353.0958622 -0.242237E+00  0.208E+00    0.03       1.0  T
  15   -352.3737597  0.722102E+00  0.273E+00    0.01       1.0  T
  16   -353.6487080 -0.127495E+01  0.171E+00    0.04       1.0  T
  17   -353.3797007  0.269007E+00  0.205E+00    0.02       1.0  T
  18   -353.3214166  0.582842E-01  0.206E+00    0.01       1.0  T
  19   -353.1744089  0.147008E+00  0.224E+00    0.01       1.0  T
  20   -353.8045419 -0.630133E+00  0.142E+00    0.00       1.0  T
  21   -353.9293404 -0.124798E+00  0.137E+00    0.02       1.0  T
  22   -354.1018706 -0.172530E+00  0.954E-01    0.00       1.0  T
  23   -354.0853722  0.164984E-01  0.946E-01    0.02       1.0  T
  24   -353.7666766  0.318696E+00  0.145E+00    0.00       1.0  T
  25   -353.9128178 -0.146141E+00  0.126E+00    0.00       1.0  T
  26   -353.7407815  0.172036E+00  0.164E+00    0.01       1.0  T
  27   -354.2146877 -0.473906E+00  0.707E-01    0.00       1.0  T
  28   -354.1579805  0.567073E-01  0.853E-01    0.00       1.0  T
  29   -354.1844292 -0.264487E-01  0.683E-01    0.00       1.0  T
  30   -354.1569780  0.274512E-01  0.729E-01    0.01       1.0  T
  31   -354.2753288 -0.118351E+00  0.354E-01    0.02       1.0  T
  32   -354.1602330  0.115096E+00  0.716E-01    0.00       1.0  T
  33   -354.2686668 -0.108434E+00  0.382E-01    0.01       1.0  T
  34   -354.2811457 -0.124789E-01  0.322E-01    0.01       1.0  T
  35   -354.2729431  0.820257E-02  0.374E-01    0.01       1.0  T
  36   -354.2949162 -0.219731E-01  0.207E-01    0.02       1.0  T
  37   -354.2962459 -0.132973E-02  0.204E-01    0.02       1.0  T
  38   -354.3018802 -0.563428E-02  0.142E-01    0.02       1.0  T
  39   -354.3041613 -0.228115E-02  0.767E-02    0.02       1.0  T
  40   -354.3032887  0.872675E-03  0.983E-02    0.02       1.0  T
  41   -354.3040973 -0.808684E-03  0.706E-02    0.02       1.0  T
  42   -354.3049032 -0.805809E-03  0.419E-02    0.02       1.0  T
  43   -354.3044864  0.416784E-03  0.571E-02    0.02       1.0  T
  44   -354.3049731 -0.486680E-03  0.364E-02    0.02       1.0  T
  45   -354.3052559 -0.282891E-03  0.193E-02    0.02       1.0  T
  46   -354.3050922  0.163767E-03  0.278E-02    0.02       1.0  T
  47   -354.3052686 -0.176385E-03  0.128E-02    0.02       1.0  T
  48   -354.3052662  0.232979E-05  0.117E-02    0.02       1.0  T
  49   -354.3052787 -0.124370E-04  0.889E-03    0.02       1.0  T
  50   -354.3052701  0.859073E-05  0.926E-03    0.02       1.0  T
  51   -354.3052881 -0.179850E-04  0.516E-03    0.02       1.4  T
  52   -354.3052878  0.215478E-06  0.496E-03    0.02       1.5  T
  53   -354.3052923 -0.442125E-05  0.226E-03    0.02       3.2  T
  54   -354.3052931 -0.800310E-06  0.145E-03    0.02       5.0  T
  55   -354.3052934 -0.341132E-06  0.521E-04    0.02      13.8  T
  56   -354.3052934 -0.337535E-07  0.298E-04    0.02      24.2  T
     SCC iter.                  ...        0 min,  6.002 sec
     gradient                   ...        0 min,  0.321 sec
 * total energy  :  -348.3056563 Eh     change       -0.6913119E-01 Eh
   gradient norm :     0.0944210 Eh/α   predicted    -0.6512586E-01 (  -5.79%)
   displ. norm   :     0.8517162 α      lambda       -0.6602589E-01
   maximum displ.:     0.2782905 α      in ANC's #198, #106, #101, ...

........................................................................
.............................. CYCLE    6 ..............................
........................................................................
   1   -354.2875050 -0.354288E+03  0.211E+00    0.09       0.0  T
   2   -345.8815587  0.840595E+01  0.754E+00    0.04       1.0  T
   3   -345.8185348  0.630239E-01  0.603E+00    0.03       1.0  T
   4   -350.8213742 -0.500284E+01  0.419E+00    0.02       1.0  T
   5   -351.0780388 -0.256665E+00  0.353E+00    0.01       1.0  T
   6   -351.0430275  0.350113E-01  0.376E+00    0.06       1.0  T
   7   -351.6117444 -0.568717E+00  0.349E+00    0.01       1.0  T
   8   -349.8970147  0.171473E+01  0.439E+00    0.01       1.0  T
   9   -352.5815528 -0.268454E+01  0.274E+00    0.01       1.0  T
  10   -352.6843054 -0.102753E+00  0.279E+00    0.03       1.0  T
  11   -353.0819979 -0.397692E+00  0.250E+00    0.01       1.0  T
  12   -353.2927309 -0.210733E+00  0.233E+00    0.03       1.0  T
  13   -353.3521880 -0.594571E-01  0.233E+00    0.04       1.0  T
  14   -353.2606800  0.915080E-01  0.239E+00    0.03       1.0  T
  15   -352.6632411  0.597439E+00  0.301E+00    0.03       1.0  T
  16   -351.2454218  0.141782E+01  0.345E+00    0.02       1.0  T
  17   -353.6252844 -0.237986E+01  0.157E+00    0.02       1.0  T
  18   -350.6376764  0.298761E+01  0.372E+00    0.01       1.0  T
  19   -350.9647259 -0.327049E+00  0.359E+00    0.00       1.0  T
  20   -350.9960172 -0.312913E-01  0.353E+00    0.00       1.0  T
  21   -350.6189232  0.377094E+00  0.370E+00    0.01       1.0  T
  22   -350.1027835  0.516140E+00  0.399E+00    0.03       1.0  T
  23   -350.1614795 -0.586960E-01  0.396E+00    0.03       1.0  T
  24   -350.3661612 -0.204682E+00  0.383E+00    0.02       1.0  T
  25   -350.2061601  0.160001E+00  0.392E+00    0.03       1.0  T
  26   -351.7884952 -0.158234E+01  0.311E+00    0.01       1.0  T
  27   -353.0976593 -0.130916E+01  0.261E+00    0.01       1.0  T
  28   -353.7330866 -0.635427E+00  0.225E+00    0.01       1.0  T
  29   -353.7906355 -0.575490E-01  0.191E+00    0.01       1.0  T
  30   -353.5883187  0.202317E+00  0.180E+00    0.01       1.0  T
  31   -354.0388975 -0.450579E+00  0.141E+00    0.01       1.0  T
  32   -353.7279777  0.310920E+00  0.155E+00    0.00       1.0  T
  33   -353.6769025  0.510751E-01  0.169E+00    0.02       1.0  T
  34   -353.7921731 -0.115271E+00  0.152E+00    0.01       1.0  T
  35   -354.0635943 -0.271421E+00  0.152E+00    0.00       1.0  T
  36   -353.5116975  0.551897E+00  0.202E+00    0.01       1.0  T
  37   -354.1192323 -0.607535E+00  0.136E+00    0.01       1.0  T
  38   -354.2540123 -0.134780E+00  0.127E+00    0.01       1.0  T
  39   -354.1468156  0.107197E+00  0.134E+00    0.00       1.0  T
  40   -354.0684675  0.783481E-01  0.122E+00    0.01       1.0  T
  41   -354.2367373 -0.168270E+00  0.961E-01    0.01       1.0  T
  42   -354.2842938 -0.475565E-01  0.772E-01    0.02       1.0  T
  43   -354.2356694  0.486244E-01  0.876E-01    0.01       1.0  T
  44   -354.3022772 -0.666078E-01  0.688E-01    0.02       1.0  T
  45   -354.3014855  0.791673E-03  0.644E-01    0.02       1.0  T
  46   -354.3291184 -0.276329E-01  0.593E-01    0.01       1.0  T
  47   -354.3371761 -0.805771E-02  0.447E-01    0.03       1.0  T
  48   -354.3494155 -0.122395E-01  0.347E-01    0.02       1.0  T
  49   -354.3609336 -0.115181E-01  0.310E-01    0.03       1.0  T
  50   -354.3543962  0.653744E-02  0.325E-01    0.03       1.0  T
  51   -354.3756576 -0.212614E-01  0.231E-01    0.03       1.0  T
  52   -354.3780764 -0.241886E-02  0.181E-01    0.03       1.0  T
  53   -354.3799477 -0.187126E-02  0.165E-01    0.03       1.0  T
  54   -354.3789620  0.985688E-03  0.120E-01    0.03       1.0  T
  55   -354.3806536 -0.169158E-02  0.761E-02    0.03       1.0  T
  56   -354.3811553 -0.501745E-03  0.506E-02    0.04       1.0  T
  57   -354.3808562  0.299162E-03  0.562E-02    0.03       1.0  T
  58   -354.3811439 -0.287767E-03  0.476E-02    0.03       1.0  T
  59   -354.3814197 -0.275736E-03  0.361E-02    0.03       1.0  T
  60   -354.3816269 -0.207265E-03  0.268E-02    0.03       1.0  T
  61   -354.3816546 -0.276806E-04  0.213E-02    0.03       1.0  T
  62   -354.3816841 -0.295255E-04  0.121E-02    0.03       1.0  T
  63   -354.3816893 -0.511174E-05  0.117E-02    0.03       1.0  T
  64   -354.3816872  0.204488E-05  0.112E-02    0.03       1.0  T
  65   -354.3816881 -0.875633E-06  0.939E-03    0.03       1.0  T
  66   -354.3816944 -0.634750E-05  0.655E-03    0.03       1.1  T
  67   -354.3816947 -0.310770E-06  0.568E-03    0.03       1.3  T
  68   -354.3816956 -0.811579E-06  0.399E-03    0.03       1.8  T
  69   -354.3816950  0.525051E-06  0.310E-03    0.03       2.3  T
  70   -354.3816955 -0.453415E-06  0.213E-03    0.03       3.4  T
  71   -354.3816957 -0.239063E-06  0.165E-03    0.03       4.4  T
  72   -354.3816957  0.203155E-07  0.127E-03    0.03       5.7  T
  73   -354.3816958 -0.104969E-06  0.897E-04    0.03       8.0  T
  74   -354.3816959 -0.470197E-07  0.529E-04    0.03      13.6  T
     SCC iter.                  ...        0 min,  7.931 sec
     gradient                   ...        0 min,  0.322 sec
 * total energy  :  -348.3646598 Eh     change       -0.5900347E-01 Eh
   gradient norm :     0.0810285 Eh/α   predicted    -0.5696124E-01 (  -3.46%)
   displ. norm   :     0.8682085 α      lambda       -0.5527480E-01
   maximum displ.:     0.2803681 α      in ANC's #106, #101, #198, ...

........................................................................
.............................. CYCLE    7 ..............................
........................................................................
   1   -354.3680215 -0.354368E+03  0.177E+00    0.10       0.0  T
   2   -348.3760182  0.599200E+01  0.579E+00    0.04       1.0  T
   3   -345.0262990  0.334972E+01  0.614E+00    0.01       1.0  T
   4   -345.7104810 -0.684182E+00  0.609E+00    0.14       1.0  T
   5   -351.7086639 -0.599818E+01  0.381E+00    0.05       1.0  T
   6   -351.1499906  0.558673E+00  0.408E+00    0.03       1.0  T
   7   -351.8359643 -0.685974E+00  0.362E+00    0.08       1.0  T
   8   -352.9254439 -0.108948E+01  0.270E+00    0.03       1.0  T
   9   -353.2748747 -0.349431E+00  0.253E+00    0.00       1.0  T
  10   -352.9360762  0.338799E+00  0.273E+00    0.01       1.0  T
  11   -353.3339032 -0.397827E+00  0.250E+00    0.01       1.0  T
  12   -353.4637015 -0.129798E+00  0.245E+00    0.02       1.0  T
  13   -350.0999565  0.336375E+01  0.390E+00    0.00       1.0  T
  14   -351.2059340 -0.110598E+01  0.372E+00    0.01       1.0  T
  15   -350.0236951  0.118224E+01  0.402E+00    0.01       1.0  T
  16   -348.2748895  0.174881E+01  0.458E+00    0.02       1.0  T
  17   -348.2561092  0.187803E-01  0.423E+00    0.03       1.0  T
  18   -349.9785005 -0.172239E+01  0.407E+00    0.04       1.0  T
  19   -349.7660149  0.212486E+00  0.425E+00    0.12       1.0  T
  20   -349.4742879  0.291727E+00  0.499E+00    0.02       1.0  T
  21   -351.6588800 -0.218459E+01  0.439E+00    0.05       1.0  T
  22   -351.3855921  0.273288E+00  0.387E+00    0.02       1.0  T
  23   -352.9214868 -0.153589E+01  0.407E+00    0.00       1.0  T
  24   -352.3528098  0.568677E+00  0.372E+00    0.00       1.0  T
  25   -352.8423127 -0.489503E+00  0.333E+00    0.02       1.0  T
  26   -353.8522771 -0.100996E+01  0.263E+00    0.01       1.0  T
  27   -353.8589408 -0.666377E-02  0.204E+00    0.02       1.0  T
  28   -354.1047171 -0.245776E+00  0.119E+00    0.01       1.0  T
  29   -353.9633016  0.141416E+00  0.125E+00    0.00       1.0  T
  30   -354.3849538 -0.421652E+00  0.812E-01    0.05       1.0  T
  31   -353.9478547  0.437099E+00  0.184E+00    0.00       1.0  T
  32   -354.1586215 -0.210767E+00  0.133E+00    0.00       1.0  T
  33   -354.3549288 -0.196307E+00  0.842E-01    0.02       1.0  T
  34   -354.2922001  0.627288E-01  0.755E-01    0.01       1.0  T
  35   -354.2806927  0.115074E-01  0.818E-01    0.03       1.0  T
  36   -354.3229901 -0.422974E-01  0.761E-01    0.03       1.0  T
  37   -354.3328200 -0.982995E-02  0.712E-01    0.03       1.0  T
  38   -354.3736565 -0.408364E-01  0.583E-01    0.03       1.0  T
  39   -354.3910935 -0.174370E-01  0.506E-01    0.03       1.0  T
  40   -354.3879656  0.312792E-02  0.497E-01    0.03       1.0  T
  41   -354.4390171 -0.510515E-01  0.339E-01    0.04       1.0  T
  42   -354.4486669 -0.964977E-02  0.285E-01    0.04       1.0  T
  43   -354.4517101 -0.304315E-02  0.230E-01    0.04       1.0  T
  44   -354.4488787  0.283131E-02  0.212E-01    0.04       1.0  T
  45   -354.4493331 -0.454328E-03  0.191E-01    0.04       1.0  T
  46   -354.4476167  0.171640E-02  0.193E-01    0.04       1.0  T
  47   -354.4517373 -0.412060E-02  0.163E-01    0.04       1.0  T
  48   -354.4533429 -0.160565E-02  0.140E-01    0.05       1.0  T
  49   -354.4549572 -0.161432E-02  0.129E-01    0.05       1.0  T
  50   -354.4555195 -0.562238E-03  0.100E-01    0.05       1.0  T
  51   -354.4560103 -0.490838E-03  0.761E-02    0.05       1.0  T
  52   -354.4559871  0.232056E-04  0.764E-02    0.05       1.0  T
  53   -354.4558308  0.156317E-03  0.671E-02    0.05       1.0  T
  54   -354.4558747 -0.438984E-04  0.600E-02    0.05       1.0  T
  55   -354.4559715 -0.968297E-04  0.502E-02    0.05       1.0  T
  56   -354.4561097 -0.138222E-03  0.424E-02    0.05       1.0  T
  57   -354.4562099 -0.100199E-03  0.345E-02    0.05       1.0  T
  58   -354.4563137 -0.103781E-03  0.251E-02    0.05       1.0  T
  59   -354.4563364 -0.226506E-04  0.202E-02    0.05       1.0  T
  60   -354.4563554 -0.189723E-04  0.183E-02    0.05       1.0  T
  61   -354.4563602 -0.485048E-05  0.153E-02    0.05       1.0  T
  62   -354.4563640 -0.375534E-05  0.116E-02    0.05       1.0  T
  63   -354.4563615  0.245316E-05  0.956E-03    0.05       1.0  T
  64   -354.4563657 -0.417524E-05  0.715E-03    0.05       1.0  T
  65   -354.4563674 -0.174140E-05  0.464E-03    0.05       1.6  T
  66   -354.4563679 -0.458588E-06  0.257E-03    0.05       2.8  T
  67   -354.4563680 -0.133650E-06  0.125E-03    0.05       5.8  T
  68   -354.4563680  0.617103E-07  0.908E-04    0.05       7.9  T
  69   -354.4563679  0.280632E-07  0.992E-04    0.05       7.3  T
     SCC iter.                  ...        0 min,  7.393 sec
     gradient                   ...        0 min,  0.321 sec
 * total energy  :  -348.4139751 Eh     change       -0.4931538E-01 Eh
   gradient norm :     0.0637330 Eh/α   predicted    -0.4847011E-01 (  -1.71%)
   displ. norm   :     0.8656981 α      lambda       -0.4440733E-01
   maximum displ.:     0.2785853 α      in ANC's #101, #106, #103, ...

........................................................................
.............................. CYCLE    8 ..............................
........................................................................
   1   -354.4632538 -0.354463E+03  0.125E+00    0.11       0.0  T
   2   -349.0403692  0.542288E+01  0.600E+00    0.01       1.0  T
   3   -347.0253794  0.201499E+01  0.600E+00    0.04       1.0  T
   4   -347.8080718 -0.782692E+00  0.581E+00    0.08       1.0  T
   5   -353.5953753 -0.578730E+01  0.251E+00    0.03       1.0  T
   6   -353.8427540 -0.247379E+00  0.193E+00    0.01       1.0  T
   7   -352.8297083  0.101305E+01  0.334E+00    0.02       1.0  T
   8   -352.0926432  0.737065E+00  0.372E+00    0.05       1.0  T
   9   -353.0548564 -0.962213E+00  0.249E+00    0.01       1.0  T
  10   -351.9316427  0.112321E+01  0.395E+00    0.02       1.0  T
  11   -351.4959002  0.435743E+00  0.387E+00    0.06       1.0  T
  12   -352.3955731 -0.899673E+00  0.333E+00    0.08       1.0  T
  13   -351.9925682  0.403005E+00  0.314E+00    0.01       1.0  T
  14   -353.5026417 -0.151007E+01  0.222E+00    0.03       1.0  T
  15   -353.9941157 -0.491474E+00  0.164E+00    0.02       1.0  T
  16   -352.7879745  0.120614E+01  0.306E+00    0.02       1.0  T
  17   -352.4037291  0.384245E+00  0.348E+00    0.03       1.0  T
  18   -352.2679154  0.135814E+00  0.360E+00    0.05       1.0  T
  19   -353.1585254 -0.890610E+00  0.269E+00    0.01       1.0  T
  20   -352.4308091  0.727716E+00  0.374E+00    0.10       1.0  T
  21   -353.0093151 -0.578506E+00  0.293E+00    0.04       1.0  T
  22   -353.0661736 -0.568585E-01  0.311E+00    0.01       1.0  T
  23   -353.0751300 -0.895639E-02  0.311E+00    0.01       1.0  T
  24   -352.5586015  0.516528E+00  0.394E+00    0.06       1.0  T
  25   -352.5821086 -0.235071E-01  0.391E+00    0.06       1.0  T
  26   -352.6559206 -0.738120E-01  0.391E+00    0.04       1.0  T
  27   -352.7836452 -0.127725E+00  0.377E+00    0.04       1.0  T
  28   -353.3370262 -0.553381E+00  0.316E+00    0.00       1.0  T
  29   -353.3817364 -0.447103E-01  0.317E+00    0.01       1.0  T
  30   -353.2003967  0.181340E+00  0.344E+00    0.00       1.0  T
  31   -353.2044700 -0.407330E-02  0.350E+00    0.01       1.0  T
  32   -353.2281025 -0.236325E-01  0.334E+00    0.00       1.0  T
  33   -353.2563115 -0.282090E-01  0.322E+00    0.00       1.0  T
  34   -354.0217173 -0.765406E+00  0.209E+00    0.00       1.0  T
  35   -354.3959423 -0.374225E+00  0.136E+00    0.04       1.0  T
  36   -354.4851929 -0.892507E-01  0.984E-01    0.06       1.0  T
  37   -354.4096430  0.755500E-01  0.773E-01    0.02       1.0  T
  38   -354.5179870 -0.108344E+00  0.574E-01    0.06       1.0  T
  39   -354.5184047 -0.417685E-03  0.358E-01    0.06       1.0  T
  40   -354.5222090 -0.380426E-02  0.317E-01    0.07       1.0  T
  41   -354.5208029  0.140604E-02  0.234E-01    0.07       1.0  T
  42   -354.5195460  0.125692E-02  0.312E-01    0.07       1.0  T
  43   -354.5237267 -0.418072E-02  0.166E-01    0.07       1.0  T
  44   -354.5213089  0.241784E-02  0.203E-01    0.07       1.0  T
  45   -354.5223614 -0.105253E-02  0.124E-01    0.06       1.0  T
  46   -354.5238808 -0.151938E-02  0.141E-01    0.07       1.0  T
  47   -354.5239326 -0.518207E-04  0.106E-01    0.07       1.0  T
  48   -354.5238142  0.118383E-03  0.949E-02    0.06       1.0  T
  49   -354.5235797  0.234519E-03  0.896E-02    0.06       1.0  T
  50   -354.5237114 -0.131660E-03  0.856E-02    0.06       1.0  T
  51   -354.5236602  0.512237E-04  0.856E-02    0.06       1.0  T
  52   -354.5238361 -0.175910E-03  0.897E-02    0.06       1.0  T
  53   -354.5241596 -0.323489E-03  0.756E-02    0.06       1.0  T
  54   -354.5242766 -0.117068E-03  0.688E-02    0.06       1.0  T
  55   -354.5242324  0.442500E-04  0.588E-02    0.06       1.0  T
  56   -354.5244199 -0.187555E-03  0.482E-02    0.07       1.0  T
  57   -354.5243188  0.101158E-03  0.544E-02    0.06       1.0  T
  58   -354.5243487 -0.299569E-04  0.500E-02    0.07       1.0  T
  59   -354.5244128 -0.641211E-04  0.423E-02    0.07       1.0  T
  60   -354.5244280 -0.151986E-04  0.354E-02    0.07       1.0  T
  61   -354.5244948 -0.667907E-04  0.230E-02    0.07       1.0  T
  62   -354.5245121 -0.172259E-04  0.145E-02    0.07       1.0  T
  63   -354.5245209 -0.878832E-05  0.990E-03    0.07       1.0  T
  64   -354.5245253 -0.445206E-05  0.693E-03    0.07       1.0  T
  65   -354.5245258 -0.455974E-06  0.431E-03    0.07       1.7  T
  66   -354.5245285 -0.273935E-05  0.179E-03    0.07       4.0  T
  67   -354.5245285  0.252661E-07  0.130E-03    0.07       5.5  T
  68   -354.5245288 -0.321220E-06  0.571E-04    0.07      12.6  T
  69   -354.5245288 -0.518688E-07  0.285E-04    0.07      25.3  T
     SCC iter.                  ...        0 min,  7.385 sec
     gradient                   ...        0 min,  0.321 sec
 * total energy  :  -348.4531336 Eh     change       -0.3915845E-01 Eh
   gradient norm :     0.0481843 Eh/α   predicted    -0.3884387E-01 (  -0.80%)
   displ. norm   :     0.8598756 α      lambda       -0.3434982E-01
   maximum displ.:     0.3044628 α      in ANC's #101, #106, #103, ...

........................................................................
.............................. CYCLE    9 ..............................
........................................................................
   1   -354.5530264 -0.354553E+03  0.834E-01    0.12       0.0  T
   2   -349.9212504  0.463178E+01  0.590E+00    0.02       1.0  T
   3   -347.5491040  0.237215E+01  0.582E+00    0.04       1.0  T
   4   -351.7628418 -0.421374E+01  0.424E+00    0.01       1.0  T
   5   -351.7746616 -0.118198E-01  0.422E+00    0.01       1.0  T
   6   -351.6208021  0.153859E+00  0.431E+00    0.09       1.0  T
   7   -351.6791639 -0.583618E-01  0.427E+00    0.06       1.0  T
   8   -351.7809699 -0.101806E+00  0.415E+00    0.07       1.0  T
   9   -351.7658119  0.151581E-01  0.404E+00    0.10       1.0  T
  10   -351.6985547  0.672572E-01  0.395E+00    0.05       1.0  T
  11   -352.1812905 -0.482736E+00  0.429E+00    0.09       1.0  T
  12   -352.0577348  0.123556E+00  0.492E+00    0.10       1.0  T
  13   -347.8573099  0.420042E+01  0.571E+00    0.00       1.0  T
  14   -348.0494247 -0.192115E+00  0.565E+00    0.00       1.0  T
  15   -346.9562536  0.109317E+01  0.626E+00    0.04       1.0  T
  16   -348.3334374 -0.137718E+01  0.552E+00    0.01       1.0  T
  17   -347.9466117  0.386826E+00  0.565E+00    0.00       1.0  T
  18   -348.1000815 -0.153470E+00  0.531E+00    0.01       1.0  T
  19   -348.2137605 -0.113679E+00  0.516E+00    0.01       1.0  T
  20   -352.2235847 -0.400982E+01  0.423E+00    0.08       1.0  T
  21   -350.6862037  0.153738E+01  0.443E+00    0.03       1.0  T
  22   -352.2918897 -0.160569E+01  0.407E+00    0.05       1.0  T
  23   -352.4103532 -0.118463E+00  0.391E+00    0.02       1.0  T
  24   -352.4170617 -0.670847E-02  0.391E+00    0.02       1.0  T
  25   -352.4246496 -0.758791E-02  0.388E+00    0.02       1.0  T
  26   -352.4186174  0.603226E-02  0.389E+00    0.00       1.0  T
  27   -352.6268973 -0.208280E+00  0.366E+00    0.01       1.0  T
  28   -353.8808033 -0.125391E+01  0.316E+00    0.01       1.0  T
  29   -352.9543880  0.926415E+00  0.349E+00    0.03       1.0  T
  30   -354.0549289 -0.110054E+01  0.263E+00    0.00       1.0  T
  31   -354.5273357 -0.472407E+00  0.253E+00    0.10       1.0  T
  32   -354.5181196  0.921613E-02  0.244E+00    0.08       1.0  T
  33   -354.5307116 -0.125920E-01  0.249E+00    0.12       1.0  T
  34   -354.5131303  0.175813E-01  0.236E+00    0.14       1.0  T
  35   -354.5111514  0.197894E-02  0.206E+00    0.11       1.0  T
  36   -354.0073366  0.503815E+00  0.154E+00    0.00       1.0  T
  37   -354.3812991 -0.373963E+00  0.148E+00    0.05       1.0  T
  38   -354.0691288  0.312170E+00  0.154E+00    0.01       1.0  T
  39   -354.0528612  0.162676E-01  0.152E+00    0.01       1.0  T
  40   -353.9888841  0.639771E-01  0.160E+00    0.00       1.0  T
  41   -354.0663552 -0.774711E-01  0.155E+00    0.01       1.0  T
  42   -354.5131995 -0.446844E+00  0.149E+00    0.08       1.0  T
  43   -354.5332886 -0.200892E-01  0.149E+00    0.10       1.0  T
  44   -354.5377274 -0.443879E-02  0.139E+00    0.10       1.0  T
  45   -354.5411394 -0.341193E-02  0.126E+00    0.09       1.0  T
  46   -354.5416276 -0.488250E-03  0.110E+00    0.09       1.0  T
  47   -354.5500317 -0.840409E-02  0.958E-01    0.08       1.0  T
  48   -354.5500842 -0.525273E-04  0.901E-01    0.09       1.0  T
  49   -354.5511414 -0.105717E-02  0.851E-01    0.09       1.0  T
  50   -354.5476611  0.348030E-02  0.839E-01    0.09       1.0  T
  51   -354.5487219 -0.106084E-02  0.781E-01    0.09       1.0  T
  52   -354.5550998 -0.637787E-02  0.742E-01    0.09       1.0  T
  53   -354.5525739  0.252590E-02  0.732E-01    0.09       1.0  T
  54   -354.5590178 -0.644392E-02  0.679E-01    0.08       1.0  T
  55   -354.5689986 -0.998079E-02  0.601E-01    0.09       1.0  T
  56   -354.5690526 -0.540134E-04  0.525E-01    0.08       1.0  T
  57   -354.5781574 -0.910475E-02  0.357E-01    0.08       1.0  T
  58   -354.5804847 -0.232736E-02  0.212E-01    0.08       1.0  T
  59   -354.5802195  0.265244E-03  0.296E-01    0.08       1.0  T
  60   -354.5809321 -0.712660E-03  0.177E-01    0.07       1.0  T
  61   -354.5824632 -0.153103E-02  0.199E-01    0.08       1.0  T
  62   -354.5823631  0.100102E-03  0.169E-01    0.08       1.0  T
  63   -354.5827962 -0.433123E-03  0.181E-01    0.08       1.0  T
  64   -354.5828417 -0.455107E-04  0.155E-01    0.08       1.0  T
  65   -354.5828165  0.252103E-04  0.144E-01    0.08       1.0  T
  66   -354.5831447 -0.328238E-03  0.145E-01    0.08       1.0  T
  67   -354.5830149  0.129857E-03  0.115E-01    0.08       1.0  T
  68   -354.5829537  0.611620E-04  0.109E-01    0.08       1.0  T
  69   -354.5831302 -0.176488E-03  0.111E-01    0.08       1.0  T
  70   -354.5831295  0.656309E-06  0.972E-02    0.08       1.0  T
  71   -354.5831494 -0.198587E-04  0.897E-02    0.08       1.0  T
  72   -354.5832406 -0.912020E-04  0.893E-02    0.08       1.0  T
  73   -354.5832975 -0.569094E-04  0.863E-02    0.08       1.0  T
  74   -354.5833008 -0.332372E-05  0.749E-02    0.08       1.0  T
  75   -354.5833132 -0.123354E-04  0.641E-02    0.08       1.0  T
  76   -354.5833794 -0.662494E-04  0.586E-02    0.08       1.0  T
  77   -354.5833368  0.426535E-04  0.458E-02    0.08       1.0  T
  78   -354.5834137 -0.768893E-04  0.415E-02    0.08       1.0  T
  79   -354.5834399 -0.262415E-04  0.356E-02    0.08       1.0  T
  80   -354.5834612 -0.212985E-04  0.281E-02    0.08       1.0  T
  81   -354.5834859 -0.247331E-04  0.217E-02    0.08       1.0  T
  82   -354.5834871 -0.117239E-05  0.128E-02    0.08       1.0  T
  83   -354.5834906 -0.348985E-05  0.874E-03    0.08       1.0  T
  84   -354.5834906  0.338380E-07  0.719E-03    0.08       1.0  T
  85   -354.5834918 -0.123878E-05  0.757E-03    0.08       1.0  T
  86   -354.5834939 -0.206500E-05  0.741E-03    0.08       1.0  T
  87   -354.5834962 -0.238988E-05  0.543E-03    0.08       1.3  T
  88   -354.5834977 -0.147694E-05  0.352E-03    0.08       2.0  T
  89   -354.5834981 -0.325647E-06  0.201E-03    0.08       3.6  T
  90   -354.5834981 -0.336416E-07  0.122E-03    0.08       5.9  T
  91   -354.5834981  0.161817E-07  0.118E-03    0.08       6.1  T
  92   -354.5834981 -0.332201E-07  0.798E-04    0.08       9.0  T
  93   -354.5834981 -0.361018E-08  0.671E-04    0.08      10.7  T
     SCC iter.                  ...        0 min,  9.964 sec
     gradient                   ...        0 min,  0.321 sec
 * total energy  :  -348.4833513 Eh     change       -0.3021775E-01 Eh
   gradient norm :     0.0382590 Eh/α   predicted    -0.2987385E-01 (  -1.14%)
   displ. norm   :     0.8692044 α      lambda       -0.2703274E-01
   maximum displ.:     0.3176279 α      in ANC's #101, #27, #30, ...

........................................................................
.............................. CYCLE   10 ..............................
........................................................................
   1   -354.6162725 -0.354616E+03  0.907E-01    0.12       0.0  T
   2   -347.0369624  0.757931E+01  0.683E+00    0.00       1.0  T
   3   -351.0267818 -0.398982E+01  0.443E+00    0.01       1.0  T
   4   -347.9751810  0.305160E+01  0.586E+00    0.10       1.0  T
   5   -351.2146180 -0.323944E+01  0.445E+00    0.03       1.0  T
   6   -350.4090328  0.805585E+00  0.451E+00    0.01       1.0  T
   7   -350.8957383 -0.486706E+00  0.443E+00    0.05       1.0  T
   8   -349.7907871  0.110495E+01  0.463E+00    0.01       1.0  T
   9   -346.5805384  0.321025E+01  0.606E+00    0.17       1.0  T
  10   -348.3583431 -0.177780E+01  0.572E+00    0.06       1.0  T
  11   -348.6536288 -0.295286E+00  0.566E+00    0.10       1.0  T
  12   -349.3291057 -0.675477E+00  0.512E+00    0.02       1.0  T
  13   -352.3913639 -0.306226E+01  0.368E+00    0.01       1.0  T
  14   -347.5731040  0.481826E+01  0.625E+00    0.06       1.0  T
  15   -347.7757006 -0.202597E+00  0.624E+00    0.10       1.0  T
  16   -352.3487527 -0.457305E+01  0.462E+00    0.00       1.0  T
  17   -349.9539995  0.239475E+01  0.521E+00    0.02       1.0  T
  18   -350.8570373 -0.903038E+00  0.520E+00    0.01       1.0  T
  19   -351.0655115 -0.208474E+00  0.516E+00    0.03       1.0  T
  20   -351.7578349 -0.692323E+00  0.473E+00    0.03       1.0  T
  21   -351.7772036 -0.193687E-01  0.472E+00    0.03       1.0  T
  22   -351.9124364 -0.135233E+00  0.473E+00    0.03       1.0  T
  23   -353.5717084 -0.165927E+01  0.334E+00    0.01       1.0  T
  24   -353.7276465 -0.155938E+00  0.322E+00    0.06       1.0  T
  25   -352.4273460  0.130030E+01  0.429E+00    0.02       1.0  T
  26   -354.6072508 -0.217990E+01  0.184E+00    0.10       1.0  T
  27   -354.5442269  0.630239E-01  0.185E+00    0.04       1.0  T
  28   -354.5211666  0.230603E-01  0.182E+00    0.04       1.0  T
  29   -354.4530183  0.681483E-01  0.211E+00    0.02       1.0  T
  30   -354.1957439  0.257274E+00  0.242E+00    0.02       1.0  T
  31   -354.1803723  0.153716E-01  0.246E+00    0.03       1.0  T
  32   -354.1822277 -0.185535E-02  0.235E+00    0.03       1.0  T
  33   -354.4270624 -0.244835E+00  0.160E+00    0.01       1.0  T
  34   -354.4537586 -0.266963E-01  0.109E+00    0.03       1.0  T
  35   -354.5512225 -0.974639E-01  0.875E-01    0.06       1.0  T
  36   -354.4062922  0.144930E+00  0.114E+00    0.03       1.0  T
  37   -354.4565208 -0.502286E-01  0.102E+00    0.04       1.0  T
  38   -354.5649656 -0.108445E+00  0.793E-01    0.06       1.0  T
  39   -354.5254218  0.395438E-01  0.877E-01    0.05       1.0  T
  40   -354.5048730  0.205488E-01  0.933E-01    0.05       1.0  T
  41   -354.5067314 -0.185845E-02  0.937E-01    0.05       1.0  T
  42   -354.5406410 -0.339096E-01  0.842E-01    0.05       1.0  T
  43   -354.5132180  0.274230E-01  0.778E-01    0.06       1.0  T
  44   -354.5814276 -0.682096E-01  0.609E-01    0.07       1.0  T
  45   -354.5970008 -0.155732E-01  0.513E-01    0.08       1.0  T
  46   -354.6053748 -0.837403E-02  0.443E-01    0.09       1.0  T
  47   -354.6146853 -0.931044E-02  0.352E-01    0.10       1.0  T
  48   -354.6220041 -0.731879E-02  0.242E-01    0.10       1.0  T
  49   -354.6226830 -0.678926E-03  0.241E-01    0.10       1.0  T
  50   -354.6241174 -0.143440E-02  0.227E-01    0.10       1.0  T
  51   -354.6241474 -0.300584E-04  0.225E-01    0.09       1.0  T
  52   -354.6252325 -0.108508E-02  0.213E-01    0.09       1.0  T
  53   -354.6269634 -0.173087E-02  0.190E-01    0.09       1.0  T
  54   -354.6284849 -0.152154E-02  0.156E-01    0.09       1.0  T
  55   -354.6304926 -0.200768E-02  0.129E-01    0.10       1.0  T
  56   -354.6313477 -0.855094E-03  0.115E-01    0.10       1.0  T
  57   -354.6311732  0.174455E-03  0.108E-01    0.10       1.0  T
  58   -354.6311682  0.502413E-05  0.110E-01    0.10       1.0  T
  59   -354.6318953 -0.727100E-03  0.968E-02    0.10       1.0  T
  60   -354.6324382 -0.542858E-03  0.871E-02    0.10       1.0  T
  61   -354.6326693 -0.231081E-03  0.796E-02    0.10       1.0  T
  62   -354.6327479 -0.786198E-04  0.786E-02    0.10       1.0  T
  63   -354.6328461 -0.982430E-04  0.727E-02    0.10       1.0  T
  64   -354.6329468 -0.100692E-03  0.660E-02    0.10       1.0  T
  65   -354.6331966 -0.249805E-03  0.532E-02    0.10       1.0  T
  66   -354.6332715 -0.748825E-04  0.460E-02    0.10       1.0  T
  67   -354.6333960 -0.124515E-03  0.352E-02    0.10       1.0  T
  68   -354.6333979 -0.188212E-05  0.300E-02    0.10       1.0  T
  69   -354.6334841 -0.861713E-04  0.182E-02    0.10       1.0  T
  70   -354.6334786  0.542278E-05  0.144E-02    0.10       1.0  T
  71   -354.6334817 -0.304638E-05  0.126E-02    0.10       1.0  T
  72   -354.6334891 -0.744805E-05  0.107E-02    0.10       1.0  T
  73   -354.6334884  0.784020E-06  0.100E-02    0.10       1.0  T
  74   -354.6334931 -0.473574E-05  0.918E-03    0.10       1.0  T
  75   -354.6335002 -0.711895E-05  0.646E-03    0.10       1.1  T
  76   -354.6335032 -0.301672E-05  0.366E-03    0.10       2.0  T
  77   -354.6335049 -0.166343E-05  0.221E-03    0.10       3.3  T
  78   -354.6335050 -0.136147E-06  0.147E-03    0.10       4.9  T
  79   -354.6335053 -0.271908E-06  0.866E-04    0.10       8.3  T
  80   -354.6335054 -0.130116E-06  0.660E-04    0.10      10.9  T
     SCC iter.                  ...        0 min,  8.557 sec
     gradient                   ...        0 min,  0.321 sec
 * total energy  :  -348.5070851 Eh     change       -0.2373373E-01 Eh
   gradient norm :     0.0321256 Eh/α   predicted    -0.2372821E-01 (  -0.02%)
   displ. norm   :     0.8792443 α      lambda       -0.2173424E-01
   maximum displ.:     0.3551308 α      in ANC's #27, #101, #30, ...

........................................................................
.............................. CYCLE   11 ..............................
........................................................................
   1   -354.6512277 -0.354651E+03  0.797E-01    0.14       0.0  T
   2   -348.7053784  0.594585E+01  0.580E+00    0.00       1.0  T
   3   -354.3548606 -0.564948E+01  0.148E+00    0.16       1.0  T
   4   -351.8006272  0.255423E+01  0.458E+00    0.05       1.0  T
   5   -351.4126540  0.387973E+00  0.480E+00    0.09       1.0  T
   6   -351.6979901 -0.285336E+00  0.464E+00    0.08       1.0  T
   7   -351.6619326  0.360575E-01  0.462E+00    0.06       1.0  T
   8   -351.5839832  0.779494E-01  0.475E+00    0.17       1.0  T
   9   -351.6228371 -0.388539E-01  0.473E+00    0.19       1.0  T
  10   -351.6582876 -0.354504E-01  0.475E+00    0.16       1.0  T
  11   -351.6558392  0.244840E-02  0.475E+00    0.16       1.0  T
  12   -345.5547411  0.610110E+01  0.603E+00    0.18       1.0  T
  13   -352.2486608 -0.669392E+01  0.454E+00    0.14       1.0  T
  14   -352.2393825  0.927832E-02  0.454E+00    0.15       1.0  T
  15   -352.6423131 -0.402931E+00  0.406E+00    0.06       1.0  T
  16   -353.6632665 -0.102095E+01  0.267E+00    0.00       1.0  T
  17   -354.3716299 -0.708363E+00  0.213E+00    0.03       1.0  T
  18   -354.4621236 -0.904937E-01  0.183E+00    0.05       1.0  T
  19   -354.3340060  0.128118E+00  0.177E+00    0.03       1.0  T
  20   -354.3050385  0.289675E-01  0.192E+00    0.01       1.0  T
  21   -354.1086331  0.196405E+00  0.212E+00    0.00       1.0  T
  22   -354.0903319  0.183012E-01  0.215E+00    0.00       1.0  T
  23   -354.0401768  0.501552E-01  0.237E+00    0.02       1.0  T
  24   -353.7264596  0.313717E+00  0.272E+00    0.06       1.0  T
  25   -353.6808583  0.456013E-01  0.272E+00    0.05       1.0  T
  26   -353.5790305  0.101828E+00  0.280E+00    0.06       1.0  T
  27   -353.5398439  0.391866E-01  0.284E+00    0.06       1.0  T
  28   -353.7500324 -0.210188E+00  0.258E+00    0.03       1.0  T
  29   -354.0160834 -0.266051E+00  0.213E+00    0.02       1.0  T
  30   -354.5105798 -0.494496E+00  0.110E+00    0.06       1.0  T
  31   -354.4214679  0.891118E-01  0.125E+00    0.03       1.0  T
  32   -354.6335561 -0.212088E+00  0.584E-01    0.12       1.0  T
  33   -354.6371070 -0.355089E-02  0.641E-01    0.09       1.0  T
  34   -354.6509076 -0.138006E-01  0.476E-01    0.11       1.0  T
  35   -354.6524712 -0.156359E-02  0.467E-01    0.11       1.0  T
  36   -354.6556975 -0.322628E-02  0.461E-01    0.12       1.0  T
  37   -354.6557998 -0.102334E-03  0.482E-01    0.13       1.0  T
  38   -354.6558608 -0.609964E-04  0.478E-01    0.13       1.0  T
  39   -354.6539881  0.187269E-02  0.486E-01    0.14       1.0  T
  40   -354.6541071 -0.119032E-03  0.464E-01    0.15       1.0  T
  41   -354.6559955 -0.188833E-02  0.417E-01    0.14       1.0  T
  42   -354.6592359 -0.324046E-02  0.363E-01    0.13       1.0  T
  43   -354.6631012 -0.386528E-02  0.294E-01    0.13       1.0  T
  44   -354.6634466 -0.345357E-03  0.232E-01    0.13       1.0  T
  45   -354.6650132 -0.156665E-02  0.159E-01    0.13       1.0  T
  46   -354.6661391 -0.112593E-02  0.118E-01    0.13       1.0  T
  47   -354.6667115 -0.572406E-03  0.797E-02    0.12       1.0  T
  48   -354.6666833  0.282121E-04  0.640E-02    0.12       1.0  T
  49   -354.6668482 -0.164855E-03  0.639E-02    0.12       1.0  T
  50   -354.6667319  0.116291E-03  0.558E-02    0.12       1.0  T
  51   -354.6668786 -0.146668E-03  0.425E-02    0.12       1.0  T
  52   -354.6670028 -0.124265E-03  0.363E-02    0.12       1.0  T
  53   -354.6670207 -0.178295E-04  0.337E-02    0.12       1.0  T
  54   -354.6670285 -0.783909E-05  0.255E-02    0.12       1.0  T
  55   -354.6670750 -0.465228E-04  0.156E-02    0.12       1.0  T
  56   -354.6670764 -0.141553E-05  0.114E-02    0.12       1.0  T
  57   -354.6670882 -0.117196E-04  0.707E-03    0.12       1.0  T
  58   -354.6670928 -0.459072E-05  0.563E-03    0.12       1.3  T
  59   -354.6670954 -0.268081E-05  0.413E-03    0.12       1.7  T
  60   -354.6670974 -0.193702E-05  0.287E-03    0.12       2.5  T
  61   -354.6670983 -0.930014E-06  0.214E-03    0.12       3.4  T
  62   -354.6670988 -0.498795E-06  0.135E-03    0.12       5.3  T
  63   -354.6670989 -0.106185E-06  0.851E-04    0.12       8.5  T
  64   -354.6670989 -0.438117E-07  0.567E-04    0.12      12.7  T
     SCC iter.                  ...        0 min,  6.849 sec
     gradient                   ...        0 min,  0.322 sec
 * total energy  :  -348.5274331 Eh     change       -0.2034806E-01 Eh
   gradient norm :     0.0318859 Eh/α   predicted    -0.1926826E-01 (  -5.31%)
   displ. norm   :     0.9392267 α      lambda       -0.2213176E-01
   maximum displ.:     0.4302106 α      in ANC's #27, #15, #30, ...

........................................................................
.............................. CYCLE   12 ..............................
........................................................................
   1   -354.6708837 -0.354671E+03  0.861E-01    0.18       0.0  T
   2   -352.5455851  0.212530E+01  0.332E+00    0.10       1.0  T
   3   -354.4361576 -0.189057E+01  0.150E+00    0.19       1.0  T
   4   -351.9187875  0.251737E+01  0.447E+00    0.01       1.0  T
   5   -351.8018007  0.116987E+00  0.458E+00    0.14       1.0  T
   6   -351.7486953  0.531055E-01  0.446E+00    0.02       1.0  T
   7   -351.9190005 -0.170305E+00  0.450E+00    0.05       1.0  T
   8   -351.9220130 -0.301247E-02  0.450E+00    0.05       1.0  T
   9   -351.7497569  0.172256E+00  0.462E+00    0.11       1.0  T
  10   -352.7482204 -0.998464E+00  0.346E+00    0.06       1.0  T
  11   -352.4223986  0.325822E+00  0.393E+00    0.04       1.0  T
  12   -353.4181735 -0.995775E+00  0.295E+00    0.06       1.0  T
  13   -353.4984675 -0.802940E-01  0.296E+00    0.06       1.0  T
  14   -353.7288358 -0.230368E+00  0.236E+00    0.02       1.0  T
  15   -354.2687609 -0.539925E+00  0.159E+00    0.07       1.0  T
  16   -353.8461200  0.422641E+00  0.225E+00    0.02       1.0  T
  17   -354.4089325 -0.562813E+00  0.151E+00    0.08       1.0  T
  18   -354.4418498 -0.329173E-01  0.141E+00    0.08       1.0  T
  19   -354.3090878  0.132762E+00  0.154E+00    0.06       1.0  T
  20   -354.5881896 -0.279102E+00  0.112E+00    0.11       1.0  T
  21   -354.6072500 -0.190604E-01  0.108E+00    0.12       1.0  T
  22   -354.6065553  0.694707E-03  0.915E-01    0.10       1.0  T
  23   -354.4982192  0.108336E+00  0.121E+00    0.03       1.0  T
  24   -354.3854710  0.112748E+00  0.140E+00    0.01       1.0  T
  25   -354.4096906 -0.242197E-01  0.133E+00    0.02       1.0  T
  26   -354.5372373 -0.127547E+00  0.101E+00    0.04       1.0  T
  27   -354.5208289  0.164084E-01  0.111E+00    0.03       1.0  T
  28   -354.6681511 -0.147322E+00  0.716E-01    0.14       1.0  T
  29   -354.6690869 -0.935784E-03  0.682E-01    0.14       1.0  T
  30   -354.6710938 -0.200687E-02  0.713E-01    0.16       1.0  T
  31   -354.6723918 -0.129800E-02  0.735E-01    0.20       1.0  T
  32   -354.6727608 -0.369049E-03  0.724E-01    0.21       1.0  T
  33   -354.6749549 -0.219408E-02  0.670E-01    0.22       1.0  T
  34   -354.6778589 -0.290396E-02  0.609E-01    0.20       1.0  T
  35   -354.6786277 -0.768833E-03  0.594E-01    0.19       1.0  T
[...]
 457:167.79 458:  2.37 459:130.22 460: 45.35 461: 15.56 462:  6.08 463: 52.79 464: 22.96
 465:****** 466:941.38 467:267.25 468:143.18 469:461.21 470:367.64 471:560.27 472: 37.41
 473:799.75 474:****** 475:  9.83 476: 98.41 477:  4.49 478: 79.26 479:  5.50 480:  7.09
 481:  2.39 482:****** 483:****** 484: 34.66 485: 34.58 486: 38.41 487: 22.16 488: 36.00
 489: 26.93 490:  0.02 491:  7.86 492: 35.15 493: 32.77 494:  1.15 495:393.19 496:172.38
 497:195.35 498: 27.42 499: 37.74 500:****** 501:486.33 502:132.52 503: 21.96 504: 10.05
 505: 12.37 506:390.40 507:562.96 508:  1.29 509: 43.78 510:  5.75 511:781.23 512:851.43
 513:482.96 514:477.17 515:  2.09 516:  0.20 517:  0.05 518:  4.75 519: 61.86 520:192.16
 521:306.49 522:  1.86 523:189.67 524: 30.80 525:175.88 526: 26.76 527: 56.05 528:******
 529:****** 530:103.85 531: 38.22 532:  9.50 533: 37.10 534:  5.28 535: 45.15 536: 22.29
 537:****** 538:104.86 539:****** 540: 31.88 541: 50.83 542:****** 543:304.90 544: 81.18
 545:****** 546: 12.83 547:  1.08 548:128.41 549:****** 550:684.80 551:****** 552: 30.76
 553:512.71 554: 78.16 555: 15.77 556:312.61 557:****** 558:202.64 559:****** 560: 97.73
 561:113.92 562:383.51 563:****** 564: 21.38 565: 94.88 566:436.19 567:****** 568:******
 569: 45.46 570:****** 571:203.92 572:****** 573:****** 574: 10.13 575:182.16 576:287.58
 577: 21.32 578: 37.04 579:927.25
 Raman intensities (amu)
   1:  0.00   2:  0.00   3:  0.00   4:  0.00   5:  0.00   6:  0.00   7:  0.00   8:  0.00
   9:  0.00  10:  0.00  11:  0.00  12:  0.00  13:  0.00  14:  0.00  15:  0.00  16:  0.00
  17:  0.00  18:  0.00  19:  0.00  20:  0.00  21:  0.00  22:  0.00  23:  0.00  24:  0.00
  25:  0.00  26:  0.00  27:  0.00  28:  0.00  29:  0.00  30:  0.00  31:  0.00  32:  0.00
  33:  0.00  34:  0.00  35:  0.00  36:  0.00  37:  0.00  38:  0.00  39:  0.00  40:  0.00
  41:  0.00  42:  0.00  43:  0.00  44:  0.00  45:  0.00  46:  0.00  47:  0.00  48:  0.00
  49:  0.00  50:  0.00  51:  0.00  52:  0.00  53:  0.00  54:  0.00  55:  0.00  56:  0.00
  57:  0.00  58:  0.00  59:  0.00  60:  0.00  61:  0.00  62:  0.00  63:  0.00  64:  0.00
  65:  0.00  66:  0.00  67:  0.00  68:  0.00  69:  0.00  70:  0.00  71:  0.00  72:  0.00
  73:  0.00  74:  0.00  75:  0.00  76:  0.00  77:  0.00  78:  0.00  79:  0.00  80:  0.00
  81:  0.00  82:  0.00  83:  0.00  84:  0.00  85:  0.00  86:  0.00  87:  0.00  88:  0.00
  89:  0.00  90:  0.00  91:  0.00  92:  0.00  93:  0.00  94:  0.00  95:  0.00  96:  0.00
  97:  0.00  98:  0.00  99:  0.00 100:  0.00 101:  0.00 102:  0.00 103:  0.00 104:  0.00
 105:  0.00 106:  0.00 107:  0.00 108:  0.00 109:  0.00 110:  0.00 111:  0.00 112:  0.00
 113:  0.00 114:  0.00 115:  0.00 116:  0.00 117:  0.00 118:  0.00 119:  0.00 120:  0.00
 121:  0.00 122:  0.00 123:  0.00 124:  0.00 125:  0.00 126:  0.00 127:  0.00 128:  0.00
 129:  0.00 130:  0.00 131:  0.00 132:  0.00 133:  0.00 134:  0.00 135:  0.00 136:  0.00
 137:  0.00 138:  0.00 139:  0.00 140:  0.00 141:  0.00 142:  0.00 143:  0.00 144:  0.00
 145:  0.00 146:  0.00 147:  0.00 148:  0.00 149:  0.00 150:  0.00 151:  0.00 152:  0.00
 153:  0.00 154:  0.00 155:  0.00 156:  0.00 157:  0.00 158:  0.00 159:  0.00 160:  0.00
 161:  0.00 162:  0.00 163:  0.00 164:  0.00 165:  0.00 166:  0.00 167:  0.00 168:  0.00
 169:  0.00 170:  0.00 171:  0.00 172:  0.00 173:  0.00 174:  0.00 175:  0.00 176:  0.00
 177:  0.00 178:  0.00 179:  0.00 180:  0.00 181:  0.00 182:  0.00 183:  0.00 184:  0.00
 185:  0.00 186:  0.00 187:  0.00 188:  0.00 189:  0.00 190:  0.00 191:  0.00 192:  0.00
 193:  0.00 194:  0.00 195:  0.00 196:  0.00 197:  0.00 198:  0.00 199:  0.00 200:  0.00
 201:  0.00 202:  0.00 203:  0.00 204:  0.00 205:  0.00 206:  0.00 207:  0.00 208:  0.00
 209:  0.00 210:  0.00 211:  0.00 212:  0.00 213:  0.00 214:  0.00 215:  0.00 216:  0.00
 217:  0.00 218:  0.00 219:  0.00 220:  0.00 221:  0.00 222:  0.00 223:  0.00 224:  0.00
 225:  0.00 226:  0.00 227:  0.00 228:  0.00 229:  0.00 230:  0.00 231:  0.00 232:  0.00
 233:  0.00 234:  0.00 235:  0.00 236:  0.00 237:  0.00 238:  0.00 239:  0.00 240:  0.00
 241:  0.00 242:  0.00 243:  0.00 244:  0.00 245:  0.00 246:  0.00 247:  0.00 248:  0.00
 249:  0.00 250:  0.00 251:  0.00 252:  0.00 253:  0.00 254:  0.00 255:  0.00 256:  0.00
 257:  0.00 258:  0.00 259:  0.00 260:  0.00 261:  0.00 262:  0.00 263:  0.00 264:  0.00
 265:  0.00 266:  0.00 267:  0.00 268:  0.00 269:  0.00 270:  0.00 271:  0.00 272:  0.00
 273:  0.00 274:  0.00 275:  0.00 276:  0.00 277:  0.00 278:  0.00 279:  0.00 280:  0.00
 281:  0.00 282:  0.00 283:  0.00 284:  0.00 285:  0.00 286:  0.00 287:  0.00 288:  0.00
 289:  0.00 290:  0.00 291:  0.00 292:  0.00 293:  0.00 294:  0.00 295:  0.00 296:  0.00
 297:  0.00 298:  0.00 299:  0.00 300:  0.00 301:  0.00 302:  0.00 303:  0.00 304:  0.00
 305:  0.00 306:  0.00 307:  0.00 308:  0.00 309:  0.00 310:  0.00 311:  0.00 312:  0.00
 313:  0.00 314:  0.00 315:  0.00 316:  0.00 317:  0.00 318:  0.00 319:  0.00 320:  0.00
 321:  0.00 322:  0.00 323:  0.00 324:  0.00 325:  0.00 326:  0.00 327:  0.00 328:  0.00
 329:  0.00 330:  0.00 331:  0.00 332:  0.00 333:  0.00 334:  0.00 335:  0.00 336:  0.00
 337:  0.00 338:  0.00 339:  0.00 340:  0.00 341:  0.00 342:  0.00 343:  0.00 344:  0.00
Refinement of some symmetry elements was terminated before convergence was reached.
Some symmetry elements may remain unidentified.
Molecule has no symmetry elements
It seems to be the C1 point group
 345:  0.00 346:  0.00 347:  0.00 348:  0.00 349:  0.00 350:  0.00 351:  0.00 352:  0.00
 353:  0.00 354:  0.00 355:  0.00 356:  0.00 357:  0.00 358:  0.00 359:  0.00 360:  0.00
 361:  0.00 362:  0.00 363:  0.00 364:  0.00 365:  0.00 366:  0.00 367:  0.00 368:  0.00
 369:  0.00 370:  0.00 371:  0.00 372:  0.00 373:  0.00 374:  0.00 375:  0.00 376:  0.00
 377:  0.00 378:  0.00 379:  0.00 380:  0.00 381:  0.00 382:  0.00 383:  0.00 384:  0.00
 385:  0.00 386:  0.00 387:  0.00 388:  0.00 389:  0.00 390:  0.00 391:  0.00 392:  0.00
 393:  0.00 394:  0.00 395:  0.00 396:  0.00 397:  0.00 398:  0.00 399:  0.00 400:  0.00
 401:  0.00 402:  0.00 403:  0.00 404:  0.00 405:  0.00 406:  0.00 407:  0.00 408:  0.00
 409:  0.00 410:  0.00 411:  0.00 412:  0.00 413:  0.00 414:  0.00 415:  0.00 416:  0.00
 417:  0.00 418:  0.00 419:  0.00 420:  0.00 421:  0.00 422:  0.00 423:  0.00 424:  0.00
 425:  0.00 426:  0.00 427:  0.00 428:  0.00 429:  0.00 430:  0.00 431:  0.00 432:  0.00
 433:  0.00 434:  0.00 435:  0.00 436:  0.00 437:  0.00 438:  0.00 439:  0.00 440:  0.00
 441:  0.00 442:  0.00 443:  0.00 444:  0.00 445:  0.00 446:  0.00 447:  0.00 448:  0.00
 449:  0.00 450:  0.00 451:  0.00 452:  0.00 453:  0.00 454:  0.00 455:  0.00 456:  0.00
 457:  0.00 458:  0.00 459:  0.00 460:  0.00 461:  0.00 462:  0.00 463:  0.00 464:  0.00
 465:  0.00 466:  0.00 467:  0.00 468:  0.00 469:  0.00 470:  0.00 471:  0.00 472:  0.00
 473:  0.00 474:  0.00 475:  0.00 476:  0.00 477:  0.00 478:  0.00 479:  0.00 480:  0.00
 481:  0.00 482:  0.00 483:  0.00 484:  0.00 485:  0.00 486:  0.00 487:  0.00 488:  0.00
 489:  0.00 490:  0.00 491:  0.00 492:  0.00 493:  0.00 494:  0.00 495:  0.00 496:  0.00
 497:  0.00 498:  0.00 499:  0.00 500:  0.00 501:  0.00 502:  0.00 503:  0.00 504:  0.00
 505:  0.00 506:  0.00 507:  0.00 508:  0.00 509:  0.00 510:  0.00 511:  0.00 512:  0.00
 513:  0.00 514:  0.00 515:  0.00 516:  0.00 517:  0.00 518:  0.00 519:  0.00 520:  0.00
 521:  0.00 522:  0.00 523:  0.00 524:  0.00 525:  0.00 526:  0.00 527:  0.00 528:  0.00
 529:  0.00 530:  0.00 531:  0.00 532:  0.00 533:  0.00 534:  0.00 535:  0.00 536:  0.00
 537:  0.00 538:  0.00 539:  0.00 540:  0.00 541:  0.00 542:  0.00 543:  0.00 544:  0.00
 545:  0.00 546:  0.00 547:  0.00 548:  0.00 549:  0.00 550:  0.00 551:  0.00 552:  0.00
 553:  0.00 554:  0.00 555:  0.00 556:  0.00 557:  0.00 558:  0.00 559:  0.00 560:  0.00
 561:  0.00 562:  0.00 563:  0.00 564:  0.00 565:  0.00 566:  0.00 567:  0.00 568:  0.00
 569:  0.00 570:  0.00 571:  0.00 572:  0.00 573:  0.00 574:  0.00 575:  0.00 576:  0.00
 577:  0.00 578:  0.00 579:  0.00
 output can be read by thermo (or use thermo option).
 writing <g98.out> molden fake output.
 recommended (thermochemical) frequency scaling factor: 1.0
           -------------------------------------------------
          |             Thermodynamic Functions             |
           -------------------------------------------------

c1  symmetry found (for desy threshold:  0.10E+00) used in thermo
 inverting freq            1   1.3793014419295535     

          ...................................................
          :                      SETUP                      :
          :.................................................:
          :  # frequencies                         571      :
          :  # imaginary freq.                       0      :
          :  linear?                             false      :
          :  only rotor calc.                    false      :
          :  symmetry                               c1      :
          :  rotational number                       1      :
          :  scaling factor                  1.0000000      :
          :  rotor cutoff                   50.0000000 cm⁻¹ :
          :  imag. cutoff                  -20.0000000 cm⁻¹ :
          :.................................................:

    mode    ω/cm⁻¹     T·S(HO)/kcal·mol⁻¹    T·S(FR)/kcal·mol⁻¹   T·S(vib)
   ------------------------------------------------------------------------
       1      1.38    -3.56215 (  0.00%)    -2.12018 (100.00%)    -2.12019
       2      2.49    -3.21197 (  0.00%)    -1.94510 (100.00%)    -1.94510
       3      2.89    -3.12320 (  0.00%)    -1.90071 (100.00%)    -1.90073
       4      3.58    -2.99732 (  0.00%)    -1.83777 (100.00%)    -1.83780
       5      4.09    -2.91806 (  0.00%)    -1.79814 (100.00%)    -1.79819
       6      5.36    -2.75816 (  0.01%)    -1.71819 ( 99.99%)    -1.71832
       7      6.17    -2.67488 (  0.02%)    -1.67654 ( 99.98%)    -1.67677
       8      6.28    -2.66415 (  0.02%)    -1.67118 ( 99.98%)    -1.67143
       9      8.82    -2.46265 (  0.10%)    -1.57042 ( 99.90%)    -1.57128
      10      9.39    -2.42562 (  0.12%)    -1.55190 ( 99.88%)    -1.55299
      11     10.68    -2.34959 (  0.21%)    -1.51388 ( 99.79%)    -1.51561
      12     15.33    -2.13562 (  0.87%)    -1.40686 ( 99.13%)    -1.41324
      13     20.46    -1.96466 (  2.72%)    -1.32133 ( 97.28%)    -1.33886
      14     23.39    -1.88523 (  4.57%)    -1.28158 ( 95.43%)    -1.30918
      15     26.34    -1.81505 (  7.15%)    -1.24644 ( 92.85%)    -1.28709
      16     29.76    -1.74288 ( 11.14%)    -1.21031 ( 88.86%)    -1.26966
      17     30.06    -1.73683 ( 11.56%)    -1.20727 ( 88.44%)    -1.26847
      18     30.14    -1.73525 ( 11.67%)    -1.20648 ( 88.33%)    -1.26817
      19     30.52    -1.72793 ( 12.19%)    -1.20281 ( 87.81%)    -1.26680
      20     30.59    -1.72649 ( 12.29%)    -1.20209 ( 87.71%)    -1.26655
      21     31.16    -1.71552 ( 13.11%)    -1.19660 ( 86.89%)    -1.26464
      22     31.20    -1.71488 ( 13.16%)    -1.19628 ( 86.84%)    -1.26454
      23     32.58    -1.68928 ( 15.27%)    -1.18345 ( 84.73%)    -1.26070
      24     36.79    -1.61746 ( 22.66%)    -1.14746 ( 77.34%)    -1.25397
      25     39.93    -1.56904 ( 28.91%)    -1.12318 ( 71.09%)    -1.25209
      26     42.03    -1.53871 ( 33.31%)    -1.10796 ( 66.69%)    -1.25144
      27     49.37    -1.44379 ( 48.73%)    -1.06031 ( 51.27%)    -1.24718
      28     57.53    -1.35365 ( 63.67%)    -1.01499 ( 36.33%)    -1.23062
      29     60.71    -1.32194 ( 68.50%)    -0.99903 ( 31.50%)    -1.22021
      30     64.44    -1.28694 ( 73.39%)    -0.98140 ( 26.61%)    -1.20565
      31     83.55    -1.13469 ( 88.63%)    -0.90446 ( 11.37%)    -1.10851
      32     89.40    -1.09516 ( 91.09%)    -0.88441 (  8.91%)    -1.07637
      33     90.61    -1.08730 ( 91.52%)    -0.88042 (  8.48%)    -1.06975
      34     91.28    -1.08302 ( 91.74%)    -0.87824 (  8.26%)    -1.06610
      35     91.63    -1.08078 ( 91.86%)    -0.87711 (  8.14%)    -1.06419
      36     93.76    -1.06736 ( 92.52%)    -0.87028 (  7.48%)    -1.05262
      37     93.85    -1.06685 ( 92.54%)    -0.87003 (  7.46%)    -1.05218
      38     98.22    -1.04034 ( 93.71%)    -0.85653 (  6.29%)    -1.02877
      39    106.81    -0.99167 ( 95.42%)    -0.83170 (  4.58%)    -0.98434
      40    116.87    -0.93962 ( 96.76%)    -0.80503 (  3.24%)    -0.93526
      41    118.83    -0.93000 ( 96.96%)    -0.80009 (  3.04%)    -0.92605
      42    124.20    -0.90458 ( 97.44%)    -0.78701 (  2.56%)    -0.90157
      43    124.95    -0.90111 ( 97.50%)    -0.78522 (  2.50%)    -0.89821
      44    125.07    -0.90055 ( 97.51%)    -0.78494 (  2.49%)    -0.89767
      45    125.10    -0.90043 ( 97.51%)    -0.78487 (  2.49%)    -0.89755
      46    126.36    -0.89465 ( 97.61%)    -0.78189 (  2.39%)    -0.89195
      47    126.42    -0.89438 ( 97.61%)    -0.78175 (  2.39%)    -0.89169
      48    138.93    -0.84035 ( 98.35%)    -0.75380 (  1.65%)    -0.83892
      49    140.26    -0.83493 ( 98.41%)    -0.75099 (  1.59%)    -0.83360
      50    143.06    -0.82365 ( 98.53%)    -0.74513 (  1.47%)    -0.82250
      51    146.64    -0.80958 ( 98.67%)    -0.73780 (  1.33%)    -0.80862
      52    148.21    -0.80353 ( 98.72%)    -0.73465 (  1.28%)    -0.80265
      53    149.31    -0.79933 ( 98.76%)    -0.73245 (  1.24%)    -0.79850
      54    155.22    -0.77735 ( 98.93%)    -0.72097 (  1.07%)    -0.77675
      55    159.25    -0.76288 ( 99.04%)    -0.71337 (  0.96%)    -0.76240
      56    167.84    -0.73330 ( 99.22%)    -0.69780 (  0.78%)    -0.73302
      57    184.15    -0.68156 ( 99.46%)    -0.67034 (  0.54%)    -0.68150
      58    184.41    -0.68076 ( 99.46%)    -0.66991 (  0.54%)    -0.68070
      59    184.72    -0.67984 ( 99.47%)    -0.66942 (  0.53%)    -0.67978
      60    184.99    -0.67903 ( 99.47%)    -0.66899 (  0.53%)    -0.67897
      61    185.09    -0.67871 ( 99.47%)    -0.66882 (  0.53%)    -0.67866
      62    188.14    -0.66968 ( 99.50%)    -0.66399 (  0.50%)    -0.66965
      63    205.68    -0.62065 ( 99.65%)    -0.63758 (  0.35%)    -0.62071
      64    206.67    -0.61803 ( 99.66%)    -0.63615 (  0.34%)    -0.61809
      65    207.81    -0.61503 ( 99.67%)    -0.63452 (  0.33%)    -0.61509
      66    209.64    -0.61026 ( 99.68%)    -0.63193 (  0.32%)    -0.61033
      67    209.74    -0.61001 ( 99.68%)    -0.63179 (  0.32%)    -0.61008
      68    214.58    -0.59760 ( 99.71%)    -0.62503 (  0.29%)    -0.59768
      69    216.42    -0.59296 ( 99.72%)    -0.62249 (  0.28%)    -0.59305
      70    217.38    -0.59057 ( 99.72%)    -0.62118 (  0.28%)    -0.59066
      71    218.58    -0.58761 ( 99.73%)    -0.61956 (  0.27%)    -0.58770
      72    219.25    -0.58594 ( 99.73%)    -0.61864 (  0.27%)    -0.58602
      73    223.82    -0.57482 ( 99.75%)    -0.61254 (  0.25%)    -0.57492
      74    223.91    -0.57461 ( 99.75%)    -0.61242 (  0.25%)    -0.57470
      75    224.18    -0.57396 ( 99.75%)    -0.61206 (  0.25%)    -0.57405
      76    224.82    -0.57242 ( 99.76%)    -0.61121 (  0.24%)    -0.57252
      77    225.10    -0.57175 ( 99.76%)    -0.61084 (  0.24%)    -0.57184
      78    225.56    -0.57067 ( 99.76%)    -0.61025 (  0.24%)    -0.57076
      79    226.42    -0.56861 ( 99.76%)    -0.60911 (  0.24%)    -0.56871
      80    226.44    -0.56857 ( 99.76%)    -0.60909 (  0.24%)    -0.56866
      81    226.99    -0.56727 ( 99.77%)    -0.60837 (  0.23%)    -0.56736
      82    230.94    -0.55803 ( 99.78%)    -0.60326 (  0.22%)    -0.55813
      83    235.13    -0.54843 ( 99.80%)    -0.59794 (  0.20%)    -0.54853
      84    240.15    -0.53720 ( 99.81%)    -0.59168 (  0.19%)    -0.53730
      85    246.68    -0.52302 ( 99.83%)    -0.58373 (  0.17%)    -0.52312
      86    246.71    -0.52294 ( 99.83%)    -0.58369 (  0.17%)    -0.52304
      87    246.74    -0.52289 ( 99.83%)    -0.58366 (  0.17%)    -0.52299
      88    247.78    -0.52067 ( 99.83%)    -0.58241 (  0.17%)    -0.52077
      89    247.80    -0.52063 ( 99.83%)    -0.58239 (  0.17%)    -0.52073
      90    253.97    -0.50770 ( 99.85%)    -0.57510 (  0.15%)    -0.50780
      91    254.24    -0.50715 ( 99.85%)    -0.57478 (  0.15%)    -0.50725
      92    254.57    -0.50646 ( 99.85%)    -0.57439 (  0.15%)    -0.50656
      93    255.92    -0.50370 ( 99.85%)    -0.57283 (  0.15%)    -0.50380
      94    255.93    -0.50369 ( 99.85%)    -0.57282 (  0.15%)    -0.50379
      95    260.63    -0.49420 ( 99.86%)    -0.56744 (  0.14%)    -0.49430
      96    261.37    -0.49272 ( 99.87%)    -0.56659 (  0.13%)    -0.49282
      97    268.76    -0.47827 ( 99.88%)    -0.55833 (  0.12%)    -0.47837
      98    273.52    -0.46925 ( 99.89%)    -0.55313 (  0.11%)    -0.46934
      99    279.16    -0.45879 ( 99.90%)    -0.54708 (  0.10%)    -0.45888
     100    279.18    -0.45875 ( 99.90%)    -0.54706 (  0.10%)    -0.45884
     101    280.43    -0.45648 ( 99.90%)    -0.54574 (  0.10%)    -0.45657
     102    281.04    -0.45537 ( 99.90%)    -0.54509 (  0.10%)    -0.45546
     103    281.14    -0.45519 ( 99.90%)    -0.54499 (  0.10%)    -0.45528
     104    290.19    -0.43913 ( 99.91%)    -0.53561 (  0.09%)    -0.43922
   ------------------------------------------------------------------------

   temp. (K)  partition function   enthalpy   heat capacity  entropy
                                   cal/mol     cal/K/mol   cal/K/mol   J/K/mol
 298.15  VIB  0.104E+60            68832.631    444.008    435.209
         ROT  0.529E+10              888.752      2.981     47.474
         INT  0.551E+69            69721.383    446.989    482.683
         TR   0.869E+29             1481.254      4.968     48.633
         TOT                       71202.6369   451.9570   531.3158  2223.0253

       T/K    H(0)-H(T)+PV         H(T)/Eh          T*S/Eh         G(T)/Eh
   ------------------------------------------------------------------------
    298.15    0.113469E+00    0.143406E+01    0.252445E+00    0.118161E+01
   ------------------------------------------------------------------------

         :::::::::::::::::::::::::::::::::::::::::::::::::::::
         ::                  THERMODYNAMIC                  ::
         :::::::::::::::::::::::::::::::::::::::::::::::::::::
         :: total free energy        -347.877952673777 Eh   ::
         ::.................................................::
         :: total energy             -349.059562741966 Eh   ::
         :: zero point energy           1.320586723735 Eh   ::
         :: G(RRHO) w/o ZPVE           -0.138976655546 Eh   ::
         :: G(RRHO) contrib.            1.181610068189 Eh   ::
         :::::::::::::::::::::::::::::::::::::::::::::::::::::

optimized geometry written to: xtbopt.xyz


           -------------------------------------------------
          | TOTAL ENERGY             -349.059562741966 Eh   |
          | TOTAL ENTHALPY           -347.625507393706 Eh   |
          | TOTAL FREE ENERGY        -347.877952673777 Eh   |
          | GRADIENT NORM               0.000248378956 Eh/α |
          | HOMO-LUMO GAP               0.235655034977 eV   |
           -------------------------------------------------

------------------------------------------------------------------------
 * finished run on 2021/11/19 at 17:40:43.936     
------------------------------------------------------------------------
 total:
 * wall-time:     0 d,  0 h, 27 min, 10.805 sec
 *  cpu-time:     0 d,  0 h, 27 min, 10.819 sec
 * ratio c/w:     1.000 speedup
 SCF:
 * wall-time:     0 d,  0 h,  0 min, 19.043 sec
 *  cpu-time:     0 d,  0 h,  0 min, 19.043 sec
 * ratio c/w:     1.000 speedup
 ANC optimizer:
 * wall-time:     0 d,  0 h,  3 min, 11.982 sec
 *  cpu-time:     0 d,  0 h,  3 min, 11.984 sec
 * ratio c/w:     1.000 speedup
 analytical hessian:
 * wall-time:     0 d,  0 h, 23 min, 38.054 sec
 *  cpu-time:     0 d,  0 h, 23 min, 38.066 sec
 * ratio c/w:     1.000 speedup

