193
 energy: -347.674837622189 gnorm: 0.837743404430 xtb: 6.4.1 (bd6e46d)
Fe       27.54362900000000    0.04105400000000   -0.01229300000000
C        29.87262000000000   -3.10573900000000    1.31039600000000
C        30.78872700000001   -2.16153200000000    1.26011400000000
C        30.37754800000000   -1.10762800000000    0.33882200000000
C        30.99641800000000    0.01671800000000   -0.00758800000000
C        30.29237600000000    1.23666600000000   -0.37169300000000
C        30.62048700000000    2.19672100000000   -1.21916700000000
C        29.58570700000000    3.21300700000000   -1.23606400000000
C        28.64943900000000    2.83654500000000   -0.38917300000000
N        29.05142900000000    1.60353400000000    0.17464400000000
C        27.38836500000000    3.48154400000000   -0.01002100000000
C        26.29314700000000    2.84676200000000    0.34073900000000
C        25.21952200000000    3.16471700000000    1.30976700000000
C        24.38195900000000    2.16796400000000    1.23260100000000
C        24.82025600000000    1.16428000000000    0.25214900000000
N        25.92519400000000    1.60313300000000   -0.23214300000000
C        24.20942200000000   -0.08899100000000   -0.16139900000000
C        24.87358200000000   -1.19349700000000   -0.41582400000000
C        24.49973300000000   -2.25643900000000   -1.37335100000000
C        25.44848100000000   -3.15019400000000   -1.28433200000000
C        26.43420400000000   -2.71274400000000   -0.30145400000000
N        26.08115900000000   -1.56693900000000    0.19534300000000
C        27.66509200000000   -3.36881500000000    0.14426700000000
C        28.78813400000000   -2.72295400000000    0.41138800000000
N        29.11673400000000   -1.47551200000000   -0.18701500000000
H        29.93288200000000   -4.01552000000000    1.92794300000000
H        31.70505500000000   -2.20148100000000    1.83816200000000
H        31.54785200000000    2.21351700000000   -1.82031000000000
H        29.60260600000000    4.11769500000000   -1.84868600000000
H        27.34064200000000    4.57634700000000   -0.01379800000000
H        25.16670000000000    4.04344200000000    1.93476000000000
H        23.47032900000000    2.13229400000000    1.84992500000000
H        23.11117100000000   -0.08608000000000   -0.26067000000000
H        23.63087800000000   -2.30890400000000   -2.02230100000000
H        25.44563500000000   -4.06650300000000   -1.88309100000000
H        27.62961000000000   -4.46461600000000    0.25619200000000
Fe       84.12936100000000   -0.00632200000000   -0.01672600000000
C        81.80037000000000    2.84047000000000    1.86677900000000
C        80.88426300000000    1.92198000000000    1.64220500000000
C        81.29544199999999    1.05728300000000    0.54139100000000
C        80.67657199999999    0.01671800000000   -0.00758800000000
C        81.38061400000001   -1.11450700000000   -0.59169100000000
C        81.05250300000000   -1.90067800000000   -1.60255700000000
C        82.08728300000000   -2.89618800000000   -1.80769800000000
C        83.02355100000000   -2.68337100000000   -0.90566800000000
N        82.62156100000000   -1.57636000000000   -0.12289600000000
C        84.28462500000001   -3.38751200000000   -0.65275400000000
C        85.37984299999999   -2.82882000000000   -0.19032100000000
C        86.45346800000000   -3.32102500000000    0.70290100000000
C        87.29103100000002   -2.32725800000000    0.81198600000000
C        86.85273400000001   -1.15910900000000    0.03475100000000
N        85.74779500000000   -1.50050100000000   -0.52254800000000
C        87.46356800000000    0.14912600000000   -0.13911900000000
C        86.79940800000001    1.28165900000000   -0.18422500000000
C        87.17325700000001    2.50378500000000   -0.92794000000000
C        86.22450900000000    3.36551200000000   -0.67466100000000
C        85.23878499999999    2.75331800000000    0.21000200000000
N        85.59183100000000    1.53523900000000    0.48561200000000
C        84.00789800000000    3.31531200000000    0.76969700000000
C        82.88485600000000    2.63110700000000    0.91236400000000
N        82.55625600000000    1.51633200000000    0.09293000000000
H        81.74010800000001    3.61989400000000    2.64238300000000
H        79.96793500000000    1.85400000000000    2.21763100000000
H        80.12513800000001   -1.80566200000000   -2.19638200000000
H        82.07038400000000   -3.67152200000000   -2.57751800000000
H        84.33234800000000   -4.46261000000000   -0.85956800000000
H        86.50629000000001   -4.30044200000000    1.15402800000000
H        88.20266100000001   -2.40673000000000    1.42521200000000
H        88.56181900000000    0.16468200000000   -0.23720600000000
H        88.04211200000000    2.67572900000000   -1.55589200000000
H        86.22735500000000    4.37699300000000   -1.09303900000000
H        84.04338000000000    4.37132900000000    1.08296600000000
C        33.89112200000001    0.01468300000000   -0.00870000000000
C        35.09909900000000    0.02213700000000   -0.00700500000000
C        36.51786700000000    0.02283400000000   -0.00186800000000
C        37.73338300000001    0.01468300000000   -0.00870000000000
C        47.24127300000000    0.01468300000000   -0.00870000000000
C        48.44924900000000    0.02213700000000   -0.00700500000000
C        49.86801700000001    0.02283400000000   -0.00186800000000
C        51.08353400000000    0.01468300000000   -0.00870000000000
C        60.59142300000000    0.01468300000000   -0.00870000000000
C        61.79940000000001    0.02213700000000   -0.00700500000000
C        63.21816800000000    0.02283400000000   -0.00186800000000
C        64.43368400000000    0.01468300000000   -0.00870000000000
C        73.94157300000001    0.01468300000000   -0.00870000000000
C        75.14955000000000    0.02213700000000   -0.00700500000000
C        76.56831800000002    0.02283400000000   -0.00186800000000
C        77.78383500000000    0.01468300000000   -0.00870000000000
Fe       42.52196400000000    0.03481800000000    0.00343900000000
C        40.24215400000000   -3.22662900000000   -0.90622700000000
C        39.28594400000001   -2.32727900000000   -1.00825300000000
C        39.67831900000000   -1.16497400000000   -0.20573700000000
C        39.04320200000000   -0.01370100000000    0.00652900000000
C        39.72865900000001    1.26089800000000    0.23275800000000
C        39.39336900000000    2.33949800000000    0.93699800000000
C        40.41791000000000    3.35881500000000    0.84641700000000
C        41.36850700000000    2.86189000000000    0.07305200000000
N        40.99151300000000    1.54528500000000   -0.34309100000000
C        42.61564700000001    3.47359200000000   -0.34381300000000
C        43.71719900000000    2.80633500000000   -0.67558500000000
C        44.71074500000000    3.05831900000000   -1.70975500000000
C        45.60462800000001    2.09746000000000   -1.60827100000000
C        45.22493000000000    1.18557600000000   -0.50429400000000
N        44.13001500000000    1.63489500000000    0.00307300000000
C        45.88213700000000   -0.01370100000000    0.00652900000000
C        45.25872600000000   -1.08288300000000    0.46804500000000
C        45.63743800000000   -2.01499900000000    1.54352100000000
C        44.69677000000000   -2.92914500000000    1.62938700000000
C        43.68846800000000   -2.63336600000000    0.63196000000000
N        44.02624300000001   -1.57998800000000   -0.01733500000000
C        42.43607500000000   -3.34037300000000    0.30076700000000
C        41.32219800000000   -2.74367600000000   -0.04657500000000
N        40.94008600000000   -1.46091900000000    0.37110800000000
H        40.24249800000000   -4.21770300000000   -1.39746100000000
H        38.37741000000000   -2.44897300000000   -1.58940100000000
H        38.46851700000000    2.45785000000000    1.51392400000000
H        40.44520500000000    4.34797900000000    1.30306700000000
H        42.70158700000000    4.57097000000000   -0.40583600000000
H        44.74341700000000    3.86453500000000   -2.43657900000000
H        46.49769000000000    1.98449200000000   -2.24204500000000
H        46.55218900000001   -1.94059200000000    2.15369100000000
H        44.71581600000000   -3.74275300000000    2.33765400000000
H        42.47456000000000   -4.44033200000000    0.35980300000000
Fe       55.87211500000000    0.03481800000000    0.00343900000000
C        53.59230400000000   -3.22662900000000   -0.90622700000000
C        52.63609500000000   -2.32727900000000   -1.00825300000000
C        53.02846900000000   -1.16497400000000   -0.20573700000000
C        52.39335300000000   -0.01370100000000    0.00652900000000
C        53.07881000000000    1.26089800000000    0.23275800000000
C        52.74351900000001    2.33949800000000    0.93699800000000
C        53.76806100000000    3.35881500000000    0.84641700000000
C        54.71865800000000    2.86189000000000    0.07305200000000
N        54.34166400000000    1.54528500000000   -0.34309100000000
C        55.96579700000000    3.47359200000000   -0.34381300000000
C        57.06734900000000    2.80633500000000   -0.67558500000000
C        58.06089600000000    3.05831900000000   -1.70975500000000
C        58.95477900000000    2.09746000000000   -1.60827100000000
C        58.57508100000000    1.18557600000000   -0.50429400000000
N        57.48016500000000    1.63489500000000    0.00307300000000
C        59.23228800000000   -0.01370100000000    0.00652900000000
C        58.60887600000000   -1.08288300000000    0.46804500000000
C        58.98758900000000   -2.01499900000000    1.54352100000000
C        58.04692000000001   -2.92914500000000    1.62938700000000
C        57.03861900000000   -2.63336600000000    0.63196000000000
N        57.37639400000000   -1.57998800000000   -0.01733500000000
C        55.78622600000000   -3.34037300000000    0.30076700000000
C        54.67234900000000   -2.74367600000000   -0.04657500000000
N        54.29023700000000   -1.46091900000000    0.37110800000000
H        53.59264900000001   -4.21770300000000   -1.39746100000000
H        51.72756000000000   -2.44897300000000   -1.58940100000000
H        51.81866700000000    2.45785000000000    1.51392400000000
H        53.79535500000000    4.34797900000000    1.30306700000000
H        56.05173700000000    4.57097000000000   -0.40583600000000
H        58.09356800000000    3.86453500000000   -2.43657900000000
H        59.84784000000000    1.98449200000000   -2.24204500000000
H        59.90233900000000   -1.94059200000000    2.15369100000000
H        58.06596700000000   -3.74275300000000    2.33765400000000
H        55.82471000000000   -4.44033200000000    0.35980300000000
Fe       69.22226499999999    0.03481800000000    0.00343900000000
C        66.94245500000000   -3.22662900000000   -0.90622700000000
C        65.98624500000000   -2.32727900000000   -1.00825300000000
C        66.37861900000000   -1.16497400000000   -0.20573700000000
C        65.74350300000000   -0.01370100000000    0.00652900000000
C        66.42896000000000    1.26089800000000    0.23275800000000
C        66.09367000000000    2.33949800000000    0.93699800000000
C        67.11821100000000    3.35881500000000    0.84641700000000
C        68.06880800000000    2.86189000000000    0.07305200000000
N        67.69181399999999    1.54528500000000   -0.34309100000000
C        69.31594800000001    3.47359200000000   -0.34381300000000
C        70.41750000000000    2.80633500000000   -0.67558500000000
C        71.41104600000000    3.05831900000000   -1.70975500000000
C        72.30492900000002    2.09746000000000   -1.60827100000000
C        71.92523100000000    1.18557600000000   -0.50429400000000
N        70.83031600000000    1.63489500000000    0.00307300000000
C        72.58243800000000   -0.01370100000000    0.00652900000000
C        71.95902700000002   -1.08288300000000    0.46804500000000
C        72.33773900000001   -2.01499900000000    1.54352100000000
C        71.39707100000001   -2.92914500000000    1.62938700000000
C        70.38876900000000   -2.63336600000000    0.63196000000000
N        70.72654400000000   -1.57998800000000   -0.01733500000000
C        69.13637600000001   -3.34037300000000    0.30076700000000
C        68.02249900000000   -2.74367600000000   -0.04657500000000
N        67.64038700000000   -1.46091900000000    0.37110800000000
H        66.94279899999999   -4.21770300000000   -1.39746100000000
H        65.07771099999999   -2.44897300000000   -1.58940100000000
H        65.16881800000000    2.45785000000000    1.51392400000000
H        67.14550600000000    4.34797900000000    1.30306700000000
H        69.40188800000001    4.57097000000000   -0.40583600000000
H        71.44371800000000    3.86453500000000   -2.43657900000000
H        73.19799100000000    1.98449200000000   -2.24204500000000
H        73.25248900000000   -1.94059200000000    2.15369100000000
H        71.41611700000000   -3.74275300000000    2.33765400000000
H        69.17486100000001   -4.44033200000000    0.35980300000000
193
 energy: -347.975127756797 gnorm: 0.461565058199 xtb: 6.4.1 (bd6e46d)
Fe       27.55491271370052    0.03939648919948   -0.01178202495052
C        29.87368954094275   -3.11483287758898    1.30296586097740
C        30.80409414434274   -2.16124744382867    1.25729062910657
C        30.37390526439980   -1.11107097584175    0.34460415020475
C        30.97509708504560    0.03817633366137   -0.00786646143896
C        30.27926003637305    1.23223010379164   -0.36398790411555
C        30.63272349930996    2.22508700744446   -1.23809151719077
C        29.61681393272953    3.21571192141833   -1.25042746184284
C        28.64358738502021    2.81360420867677   -0.38207620872984
N        29.02785350248460    1.58399718183552    0.17801689761779
C        27.40821697019737    3.48050587330383   -0.01058988942928
C        26.28194513485352    2.83182211855160    0.34176211407571
C        25.22012839435916    3.17272955621358    1.29377003670726
C        24.35523582611299    2.16099325020327    1.23626790298724
C        24.81320354857991    1.16556597857389    0.26875153899142
N        25.95770929930124    1.58533318285501   -0.21554152986252
C        24.19681222741767   -0.06659728549902   -0.15408620345424
C        24.87689521128259   -1.19761395952436   -0.42162388449911
C        24.49136593481256   -2.25644753470700   -1.36035876853538
C        25.45559869878150   -3.17255743933262   -1.28223309087611
C        26.44342474738397   -2.72484917817669   -0.31005785167368
N        26.09065013568199   -1.54609603631299    0.17197002232208
C        27.64688440345441   -3.37592015769236    0.13605010884791
C        28.79483822826853   -2.70799519421853    0.41449936898469
N        29.10946436715518   -1.47133410905122   -0.16030604941289
H        29.92466650929766   -4.01041724557099    1.92002735077683
H        31.71027241698183   -2.19209691363657    1.83570518426802
H        31.54584729409027    2.22262910912336   -1.82249031649388
H        29.60998240504194    4.11465005542530   -1.85052651406787
H        27.35704495823683    4.57193387276588   -0.00739629249055
H        25.17357643594938    4.04211373905021    1.92857473383094
H        23.46511492534869    2.12325543465014    1.84925473963979
H        23.11232095750847   -0.07758199150961   -0.26563892045596
H        23.63262914679473   -2.29960763905249   -2.01470390376155
H        25.45634048770612   -4.07129138953368   -1.87997478881767
H        27.62489769328618   -4.46067490755142    0.25613495124124
Fe       84.11806932717508   -0.00475021111019   -0.01594806055751
C        81.79930171360614    2.85077650266616    1.86116650522412
C        80.86892411551847    1.92220948935500    1.63938658036252
C        81.29913378882199    1.05957010928273    0.54772413957697
C        80.69810080656632   -0.00435910317414   -0.01174703144175
C        81.39376316510845   -1.11158430425739   -0.58327587124528
C        81.04028171533334   -1.92503920257297   -1.62640271210030
C        82.05616641503102   -2.89617195479222   -1.82230481847894
C        83.02941484896887   -2.66212730028587   -0.89443592925763
N        82.64516224466944   -1.55780261139784   -0.11593333718005
C        84.26477131416762   -3.38638820324248   -0.65312552542526
C        85.39104668383784   -2.81432084420501   -0.18654693957788
C        86.45285778268283   -3.32592457802583    0.68570301586079
C        87.31775873103913   -2.32109045583710    0.81687494884672
C        86.85977789052679   -1.16345046564408    0.05082557918644
N        85.71527571350516   -1.48610206054873   -0.50293629317157
C        87.47617146249769    0.12576261155139   -0.13608314180842
C        86.79608404076458    1.28678142915528   -0.18915760705633
C        87.18162323795887    2.50138417688578   -0.91517170900873
C        86.21738845763527    3.38709480998343   -0.66845768501112
C        85.22956376966449    2.76680218057431    0.20379345463600
N        85.58235351268205    1.51910335167204    0.45880769360136
C        84.02610503548394    3.32381909858861    0.76294340242238
C        82.87815849239927    2.61581436301760    0.91263383671774
N        82.56357145917450    1.50726881625098    0.11837203715298
H        81.74832004804568    3.61635218478562    2.63365660612224
H        79.96272253303707    1.84523923766302    2.21347064857129
H        80.12715129054291   -1.81419466255796   -2.20021415530934
H        82.06301260366247   -3.66818716070601   -2.57877033992802
H        84.31594669692437   -4.45946681136970   -0.85246339968258
H        86.49941677028362   -4.29799205648755    1.14819613230451
H        88.20787745468516   -2.39772441961017    1.42623105353225
H        88.56066587018618    0.15725236828996   -0.24366500854176
H        88.04036191420262    2.66518497268371   -1.55015134066814
H        86.21665056225378    4.38112218451830   -1.08908837531375
H        84.04808820635209    4.36746819037337    1.08218020609872
C        33.88022102658525    0.01493616461383   -0.00744310516014
C        35.10297831644228    0.02236681268612   -0.00704067544702
C        36.48793578084276    0.02381319550682   -0.00216214772260
C        37.70683179667051    0.02361165129495   -0.01166874649300
C        47.25865099685923    0.02234460125607   -0.00586727757455
C        48.47366575365070    0.02292392170600   -0.00540408819697
C        49.84254123962132    0.02361396836642   -0.00259154468844
C        51.05891000837880    0.02341457471588   -0.01270887582807
C        60.60867490160275    0.02241815699930   -0.00547551081071
C        61.82392927631842    0.02295711042268   -0.00526246231420
C        63.19257406058763    0.02360648246991   -0.00262843494232
C        64.40905988316921    0.02333187720892   -0.01286103789506
C        73.96144192522395    0.02278886017697   -0.00526018080066
C        75.17921545518423    0.02281316892245   -0.00573632712142
C        76.56637582409905    0.02213540032817   -0.00220394950427
C        77.79012493943475    0.01420742474523   -0.00819931195282
Fe       42.51415118675556    0.03720576581952    0.00100831873234
C        40.24297678121616   -3.24569998617111   -0.90016358777277
C        39.27951336621707   -2.32718203252823   -1.00002085535439
C        39.70491267774042   -1.18084532628904   -0.20964763844021
C        39.05997368392343    0.00581684208669    0.00505645287164
C        39.75860776508001    1.26569070044251    0.23029838151554
C        39.38386876187469    2.36663888924433    0.94947991031326
C        40.39289111365837    3.36138787035525    0.85468782324549
C        41.37871134251805    2.84225438857144    0.06873229760528
N        41.01489889580263    1.53318211091886   -0.33257250709095
C        42.60079397446459    3.47345998491467   -0.34535644481132
C        43.72671073086237    2.79524733601092   -0.67660790366810
C        44.71804385315278    3.06630316511520   -1.69760855884170
C        45.62609457459698    2.08608211727994   -1.60781211885073
C        45.22666931541341    1.18567046910550   -0.52159511257630
N        44.09801811636435    1.61934405965560   -0.01261113612309
C        45.88599133825058    0.00387313391437   -0.00305361160762
C        45.24271420978103   -1.09625508077181    0.47710584231117
C        45.64952662628446   -2.01405991269939    1.53406707629159
C        44.69303325874521   -2.94660353102554    1.62917226798990
C        43.67787950439878   -2.64331174350453    0.64192222856110
N        44.01184467165995   -1.54812900552579   -0.00654112630473
C        42.45688346069227   -3.34819842856537    0.31111997720255
C        41.30956750345478   -2.73225711421821   -0.05441614974165
N        40.95224737649745   -1.45058834765659    0.34179093614127
H        40.24738981841208   -4.21494319738846   -1.39385957589367
H        38.37801844885883   -2.43879673734447   -1.58473277953696
H        38.46750713448083    2.46249679240444    1.51546601051560
H        40.43386994095913    4.34271595396711    1.30575424885802
H        42.68381705223105    4.56476494466833   -0.41178646482559
H        44.73635007541392    3.86305603666436   -2.42855379870496
H        46.49890596687862    1.97782541527391   -2.23923965545749
H        46.54682025856648   -1.93536530993916    2.14526595302065
H        44.70853513362946   -3.74948568672031    2.33870038721943
H        42.48078758765905   -4.43785246350742    0.35759015123595
Fe       55.86420088254165    0.03699125540959    0.00193890423984
C        53.59242053802361   -3.24579773369827   -0.90029558854938
C        52.62934306404999   -2.32803840929066   -0.99969766578072
C        53.05512928741258   -1.18078217606653   -0.20842158720148
C        52.41167334368362    0.00549640779634    0.00487198092049
C        53.10908160957065    1.26618281361176    0.22989402633888
C        52.73414150761578    2.36699575290974    0.94960909339053
C        53.74263158617119    3.36150408994483    0.85462139149634
C        54.72881485721113    2.84220407294705    0.06832535714520
N        54.36501245862289    1.53326003963736   -0.33255476112857
C        55.95068549477153    3.47326556736782   -0.34508278968319
C        57.07707659349130    2.79508254531745   -0.67664162768407
C        58.06812305048732    3.06631735171633   -1.69775102889644
C        58.97630470561301    2.08610197242946   -1.60794387462107
C        58.57654005310133    1.18603203771363   -0.52183708329042
N        57.44831109540037    1.61935128820330   -0.01312047696526
C        59.23617370407868    0.00349674476621   -0.00280073074862
C        58.59319567140795   -1.09641956650121    0.47689059499281
C        59.00002527616197   -2.01429997528236    1.53406156095155
C        58.04331155209489   -2.94632353710624    1.62950106515694
C        57.02835353753373   -2.64254428083300    0.64199693201063
N        57.36204378210093   -1.54863333026262   -0.00663864864515
C        55.80648113122884   -3.34813007465866    0.31058520469260
C        54.66016492622158   -2.73211897149169   -0.05415187185608
N        54.30286559856385   -1.45042269619089    0.34156137805824
H        53.59739363088913   -4.21495482934094   -1.39400451116427
H        51.72815756400890   -2.43896250959611   -1.58495177221795
H        51.81771522286980    2.46257789021168    1.51568219481419
H        53.78393249725647    4.34274215166253    1.30580238226341
H        56.03394487451180    4.56468807472452   -0.41156117799300
H        58.08651034915510    3.86310236158377   -2.42856635008328
H        59.84908089737003    1.97783350541867   -2.23924997785280
H        59.89707338384147   -1.93541211541865    2.14532912385566
H        58.05868267999450   -3.74939527762810    2.33877893980850
H        55.83089879651089   -4.43780725805946    0.35713701929456
Fe       69.21424832258649    0.03704264993272    0.00122468228321
C        66.94238298517867   -3.24592036821495   -0.90007917487026
C        65.97965172653163   -2.32813714261934   -0.99969495403083
C        66.40534944967965   -1.18055218459653   -0.20833283311353
C        65.76167227412191    0.00538135829986    0.00478699812125
C        66.45904941776128    1.26623958713475    0.23009726706748
C        66.08431633253355    2.36672350675279    0.94961688843350
C        67.09304235352789    3.36147699243059    0.85459440491486
C        68.07908847615123    2.84236247367739    0.06846970243981
N        67.71506612722092    1.53328063704762   -0.33260091134856
C        69.30091771005885    3.47329741833086   -0.34502033657433
C        70.42729586287312    2.79522829619820   -0.67656732756628
C        71.41818194054026    3.06637304650283   -1.69762068651708
C        72.32624983455005    2.08586014616132   -1.60815087072025
C        71.92649343310025    1.18539831374816   -0.52266565359846
N        70.79904249860142    1.61909323241185   -0.01292206524882
C        72.58804410928697    0.00305446707562   -0.00260995416400
C        71.94402116575009   -1.09612395412921    0.47738616701933
C        72.35023463407676   -2.01387107390836    1.53386780820249
C        71.39305141321212   -2.94600460407075    1.62951696719820
C        70.37893677853674   -2.64210915358040    0.64249428724417
N        70.71213046165373   -1.54848685182520   -0.00608068157014
C        69.15600737926562   -3.34836322532191    0.31011290230799
C        68.01057999775840   -2.73260822210150   -0.05377835249546
N        67.65304100587716   -1.45002301052039    0.34189722693245
H        66.94750459344658   -4.21497282726976   -1.39401539593178
H        65.07838115900132   -2.43896054702729   -1.58499228564903
H        65.16783791828303    2.46254338691020    1.51563591839377
H        67.13410370990402    4.34279116888775    1.30570379783355
H        69.38407729582126    4.56470629412874   -0.41169824950026
H        71.43664866724136    3.86313127953907   -2.42851310573256
H        73.19921496404524    1.97780493065567   -2.23914196643572
H        73.24728815845670   -1.93541589591775    2.14513848616821
H        71.40872138220807   -3.74933475693870    2.33865289813997
H        69.18107242919586   -4.43793280329340    0.35645464778821
193
 energy: -348.146862704676 gnorm: 0.187466802608 xtb: 6.4.1 (bd6e46d)
Fe       27.56536589725034    0.03981883138990   -0.00924887511049
C        29.87321515677512   -3.12039331455644    1.29249684337873
C        30.81792667970241   -2.16041079955543    1.25223097396653
C        30.36648028349549   -1.11304837699108    0.35479296376564
C        30.94038041963112    0.06441028353794   -0.00947618775301
C        30.26462082561740    1.22565339609245   -0.35934379907345
C        30.63970948190126    2.25492201630725   -1.24984363910602
C        29.65070268256892    3.21379246357774   -1.25441522290388
C        28.63718849698334    2.78771706219329   -0.37316057258344
N        29.00131607426827    1.56323681776791    0.16482856525827
C        27.43168167603315    3.47213295539636   -0.01141026901134
C        26.27848180771504    2.80872673538195    0.34847404899573
C        25.22509737581736    3.17450906976958    1.27163209777733
C        24.33112999484252    2.15786533176719    1.23069813142841
C        24.80669773296452    1.16515734587282    0.28787315348340
N        25.99712855148553    1.56280294141359   -0.18543420924585
C        24.19044326153869   -0.04448828475538   -0.14475641987040
C        24.88517628369166   -1.19652441394508   -0.43396960242816
C        24.48816892854132   -2.25471861640201   -1.34318603129355
C        25.45855198108347   -3.19257416666364   -1.27287237597507
C        26.45298707577859   -2.73474299021089   -0.32052942931906
N        26.10363531791802   -1.51561202637678    0.13519130236919
C        27.62948398029467   -3.37706648655136    0.12674086302810
C        28.79695346797617   -2.68753678203376    0.42100060829665
N        29.09785485556979   -1.46604489553575   -0.12576377270443
H        29.91477787280087   -4.00523762481975    1.90794349993747
H        31.71835125437642   -2.18071964311674    1.82993767198725
H        31.54383337744227    2.23076219791744   -1.82231287721628
H        29.61496194361912    4.10971957625245   -1.84754429007823
H        27.37571462051020    4.56059101589651   -0.00644574797936
H        25.18101342069143    4.03750724870921    1.91630008529980
H        23.45825786265078    2.11311116341304    1.84490672004857
H        23.11540056146166   -0.07119534978914   -0.26497080105965
H        23.63626170122024   -2.28947137334523   -2.00246769432489
H        25.46782605162709   -4.07809591670423   -1.87325976292853
H        27.62456445529360   -4.45417017988974    0.25108814836300
Fe       84.10759759723700   -0.00565165596584   -0.01354483580585
C        81.79978965204812    2.85819271386668    1.85189497005618
C        80.85512041642069    1.92232015420787    1.63425177886156
C        81.30661557928391    1.05961514552945    0.55810485567989
C        80.73293916037066   -0.02989728831114   -0.01815697645532
C        81.40847680314673   -1.10597595180574   -0.57750695289198
C        81.03332124039540   -1.95217368311289   -1.64347948884557
C        82.02229780095354   -2.89355973425592   -1.82586566945876
C        83.03583592671730   -2.63837693102544   -0.88087228876933
N        82.67174732200988   -1.53497838062487   -0.12505773741316
C        84.24131322874040   -3.37802843765523   -0.65237561022468
C        85.39451044467177   -2.79287184513119   -0.17566024149068
C        86.44788746424781   -3.32356252856529    0.66362025419868
C        87.34186360911275   -2.31697375354551    0.81198517502740
C        86.86629323780748   -1.16659440579575    0.06968776861866
N        85.67585773351090   -1.46954822201293   -0.46916978032091
C        87.48254558347206    0.10230753734320   -0.13102641644566
C        86.78780894121279    1.28800084851592   -0.20150448310899
C        87.18482018220989    2.49649503242191   -0.89863671865772
C        86.21443611312006    3.40502688571067   -0.65556497966055
C        85.22000353582800    2.77847326317741    0.19532487181013
N        85.56935806858985    1.49596721267300    0.41698107896296